LAMMPS (30 Mar 2026 - Development - patch_30Mar2026-1178-g5f8b8984a-modified)
  using 4 OpenMP thread(s) per MPI task
# LAMMPS Input File
# Licensed under CC BY 4.0
# A Set of Materials-Science Tutorials for the LAMMPS Simulation Package
# Appendix: structure-analysis toolkit
#
# Compare common neighbor analysis (CNA) and polyhedral template matching
# (PTM) on a thermally vibrating -- but perfectly crystalline -- aluminum
# solid at 800 K.  CNA's fixed-cutoff classification degrades with thermal
# displacement, while PTM's template fit stays robust.  Prints the fraction
# of atoms classified as fcc by each method and renders one image per
# method (blue = fcc, red = unclassified).

variable a0 equal 4.04526
variable T  equal 800.0

units metal
atom_style atomic
boundary p p p

lattice fcc ${a0}
lattice fcc 4.04526
Lattice spacing in x,y,z = 4.04526 4.04526 4.04526
region box block 0 8 0 8 0 8
create_box 1 box
Created orthogonal box = (0 0 0) to (32.36208 32.36208 32.36208)
  1 by 1 by 1 MPI processor grid
create_atoms 1 box
Created 2048 atoms
  using lattice units in orthogonal box = (0 0 0) to (32.36208 32.36208 32.36208)
  create_atoms CPU = 0.000 seconds
mass 1 26.9815
pair_style eam/fs
pair_coeff * * Al_mm.eam.fs Al
Reading eam/fs potential file Al_mm.eam.fs with DATE: 2007-06-11

velocity all create ${T} 2917 mom yes rot yes dist gaussian
velocity all create 800 2917 mom yes rot yes dist gaussian
fix md all npt temp ${T} ${T} 0.2 iso 0.0 0.0 1.0
fix md all npt temp 800 ${T} 0.2 iso 0.0 0.0 1.0
fix md all npt temp 800 800 0.2 iso 0.0 0.0 1.0
thermo 500
thermo_style custom step temp pe press lx
run 10000
Neighbor list info ...
  update: every = 1 steps, delay = 0 steps, check = yes
  max neighbors/atom: 2000, page size: 100000
  master list distance cutoff = 8.5
  ghost atom cutoff = 8.5
  binsize = 4.25, bins = 8 8 8
  1 neighbor lists, perpetual/occasional/extra = 1 0 0
  (1) pair eam/fs, perpetual
      attributes: half, newton on
      pair build: half/bin/atomonly/newton
      stencil: half/bin/3d
      bin: standard
Per MPI rank memory allocation (min/avg/max) = 6.606 | 6.606 | 6.606 Mbytes
   Step          Temp          PotEng         Press            Lx      
         0   800           -6985.0254      6670.7527      32.36208     
       500   484.87535     -6846.4201     -5848.6474      32.800447    
      1000   648.50346     -6794.8268      2684.1551      32.813005    
      1500   768.24426     -6736.4288     -666.52816      32.986286    
      2000   837.02747     -6726.842       281.62216      33.004962    
      2500   772.53779     -6745.5172      874.29887      32.949382    
      3000   803.87381     -6736.6887     -1319.6984      32.9949      
      3500   831.38615     -6735.2342     -288.15537      32.995068    
      4000   801.69704     -6749.4525     -537.53143      32.960259    
      4500   784.4655      -6728.8738     -918.28161      33.006979    
      5000   814.50582     -6734.9442      1297.1819      32.965982    
      5500   782.83589     -6743.6236     -771.61736      32.976404    
      6000   807.71484     -6733.7516      749.43991      32.972284    
      6500   823.50022     -6739.5976     -1809.1923      33.002427    
      7000   772.10177     -6738.5654      1356.9497      32.95711     
      7500   800.56743     -6731.6536     -382.96154      32.995635    
      8000   810.28751     -6736.2703      466.65481      32.981552    
      8500   804.77223     -6746.5148     -2158.1732      32.988435    
      9000   802.75913     -6731.3631      1828.4506      32.96906     
      9500   787.88455     -6733.1088     -1745.8576      33.011629    
     10000   798.71915     -6742.8124      2103.8183      32.935635    
Loop time of 27.7713 on 4 procs for 10000 steps with 2048 atoms

Performance: 31.111 ns/day, 0.771 hours/ns, 360.085 timesteps/s, 737.453 katom-step/s
395.8% CPU use with 1 MPI tasks x 4 OpenMP threads

MPI task timing breakdown:
Section |  min time  |  avg time  |  max time  |%varavg| %total
---------------------------------------------------------------
Pair    | 26.75      | 26.75      | 26.75      |   0.0 | 96.32
Neigh   | 0.49151    | 0.49151    | 0.49151    |   0.0 |  1.77
Comm    | 0.12928    | 0.12928    | 0.12928    |   0.0 |  0.47
Output  | 0.00042578 | 0.00042578 | 0.00042578 |   0.0 |  0.00
Modify  | 0.35803    | 0.35803    | 0.35803    |   0.0 |  1.29
Other   |            | 0.04189    |            |       |  0.15

Nlocal:           2048 ave        2048 max        2048 min
Histogram: 1 0 0 0 0 0 0 0 0 0
Nghost:           5595 ave        5595 max        5595 min
Histogram: 1 0 0 0 0 0 0 0 0 0
Neighs:         148789 ave      148789 max      148789 min
Histogram: 1 0 0 0 0 0 0 0 0 0

Total # of neighbors = 148789
Ave neighs/atom = 72.650879
Neighbor list builds = 169
Dangerous builds = 0

# CNA cutoff halfway between the 1st and 2nd neighbor shell, computed from
# the *current* (thermally expanded) lattice constant lx/8
variable rc equal 0.8536*lx/8
compute cna all cna/atom ${rc}
compute cna all cna/atom 3.51423224855774
compute ptm all ptm/atom fcc-hcp-bcc-ico 0.15 all

# fraction of atoms classified as fcc by each method
variable iscna atom c_cna==1
variable isptm atom c_ptm[1]==1
compute ncna all reduce sum v_iscna
compute nptm all reduce sum v_isptm

thermo_style custom step temp c_ncna c_nptm
run 0

CITE-CITE-CITE-CITE-CITE-CITE-CITE-CITE-CITE-CITE-CITE-CITE-CITE

Your simulation uses code contributions which should be cited:

- PTM package: https://doi.org/10.1088/0965-0393/24/5/055007

@Article{larsen2016ptm,
 author={Larsen, Peter Mahler and Schmidt, S{\o}ren and
    Schi{\o}tz, Jakob},
 title={Robust Structural Identification via Polyhedral Template
    Matching},
 journal={Model.\ Simulat.\ Mater.\ Sci.\ Eng.},
 year={2016},
 number={5},
 volume={24},
 pages={055007},
 DOI = {10.1088/0965-0393/24/5/055007}}

CITE-CITE-CITE-CITE-CITE-CITE-CITE-CITE-CITE-CITE-CITE-CITE-CITE

Neighbor list info ...
  update: every = 1 steps, delay = 0 steps, check = yes
  max neighbors/atom: 2000, page size: 100000
  master list distance cutoff = 8.5
  ghost atom cutoff = 8.5
  binsize = 4.25, bins = 8 8 8
  3 neighbor lists, perpetual/occasional/extra = 1 2 0
  (1) pair eam/fs, perpetual
      attributes: half, newton on
      pair build: half/bin/atomonly/newton
      stencil: half/bin/3d
      bin: standard
  (2) compute cna/atom, occasional
      attributes: full, newton on
      pair build: full/bin/atomonly
      stencil: full/bin/3d
      bin: standard
  (3) compute ptm/atom, occasional
      attributes: full, newton on
      pair build: full/bin/atomonly
      stencil: full/bin/3d
      bin: standard
Per MPI rank memory allocation (min/avg/max) = 10.16 | 10.16 | 10.16 Mbytes
   Step          Temp          c_ncna         c_nptm    
     10000   798.71915      1426           2039         
Loop time of 8.52e-07 on 4 procs for 0 steps with 2048 atoms

234.7% CPU use with 1 MPI tasks x 4 OpenMP threads

MPI task timing breakdown:
Section |  min time  |  avg time  |  max time  |%varavg| %total
---------------------------------------------------------------
Pair    | 0          | 0          | 0          |   0.0 |  0.00
Neigh   | 0          | 0          | 0          |   0.0 |  0.00
Comm    | 0          | 0          | 0          |   0.0 |  0.00
Output  | 0          | 0          | 0          |   0.0 |  0.00
Modify  | 0          | 0          | 0          |   0.0 |  0.00
Other   |            | 8.52e-07   |            |       |100.00

Nlocal:           2048 ave        2048 max        2048 min
Histogram: 1 0 0 0 0 0 0 0 0 0
Nghost:           5609 ave        5609 max        5609 min
Histogram: 1 0 0 0 0 0 0 0 0 0
Neighs:         148785 ave      148785 max      148785 min
Histogram: 1 0 0 0 0 0 0 0 0 0
FullNghs:       297570 ave      297570 max      297570 min
Histogram: 1 0 0 0 0 0 0 0 0 0

Total # of neighbors = 297570
Ave neighs/atom = 145.29785
Neighbor list builds = 0
Dangerous builds = 0
print "fcc fraction at $(v_T:%.0f) K:  CNA $(c_ncna/atoms:%.3f)   PTM $(c_nptm/atoms:%.3f)"
fcc fraction at 800 K:  CNA 0.696   PTM 0.996

# side-by-side render: same snapshot, colored by each classification
write_dump all image cna-hot.png v_iscna type adiam 2.6     view 60 30 zoom 1.2 size 800 800 box yes 0.02     shiny 0.2 ssao yes 4539 0.6 fsaa yes     modify backcolor white boxcolor midnightblue     amap 0.0 1.0 ca 0.0 2 min firebrick max steelblue
write_dump all image ptm-hot.png v_isptm type adiam 2.6     view 60 30 zoom 1.2 size 800 800 box yes 0.02     shiny 0.2 ssao yes 4539 0.6 fsaa yes     modify backcolor white boxcolor midnightblue     amap 0.0 1.0 ca 0.0 2 min firebrick max steelblue
Total wall time: 0:00:32
