ITEM: TIMESTEP
2000
ITEM: NUMBER OF ATOMS
500
ITEM: BOX BOUNDS pp pp pp
-1.3504844345105305e-01 1.7935048443451123e+01
-1.3504844345105305e-01 1.7935048443451123e+01
-1.3504844345105305e-01 1.7935048443451123e+01
ITEM: ATOMS id type x y z
1 4 17.8376 -0.0694105 -0.120973
2 2 1.55806 1.44093 -0.086469
3 4 1.69127 17.8853 1.63135
4 2 17.8931 1.57556 1.75797
5 2 3.64027 0.16128 -0.123368
6 3 5.34068 1.91344 17.8163
7 3 5.47894 17.8238 1.6672
8 1 3.21767 1.71064 1.53077
9 1 6.92836 0.153411 17.819
10 4 8.77585 1.94142 17.9341
11 2 8.88873 -0.00426233 1.79447
12 4 6.96415 1.77993 1.69001
13 4 10.6148 17.9337 -0.00831145
14 1 12.3755 1.65506 17.8177
15 3 12.4758 -0.039693 1.61518
16 1 10.7563 1.58604 1.75275
17 4 13.9582 17.7684 17.8624
18 3 16.0366 1.4388 17.8763
19 1 15.9311 -0.0257051 1.69682
20 2 14.1725 1.60076 1.7641
21 3 17.854 3.53641 17.9058
22 3 1.56881 5.06761 17.9009
23 2 1.58895 3.52418 1.70537
24 2 17.7808 5.18916 1.52772
25 3 3.43109 3.64069 17.842
26 3 5.28859 5.34866 17.8653
27 2 5.12186 3.40372 1.5376
28 4 3.49975 5.4431 1.47367
29 2 7.04246 3.65043 -5.11376e-05
30 1 8.94719 5.38209 17.8154
31 2 8.89541 3.53818 1.87447
32 1 7.29757 5.42881 1.69847
33 2 10.785 3.58704 -0.0133194
34 4 12.4384 5.27564 17.6724
35 4 12.2759 3.36086 1.74874
36 1 10.6873 5.38387 1.69413
37 2 14.0849 3.27312 17.9249
38 3 16.2542 5.28726 17.776
39 4 15.9148 3.54067 1.50748
40 2 14.2613 5.19035 1.56505
41 4 0.0168696 7.09757 17.8555
42 1 1.80977 8.87312 -0.0559144
43 3 1.87178 6.98221 1.53863
44 4 0.0620838 8.91901 1.68894
45 1 3.66507 7.29605 -0.0673941
46 2 5.27917 8.87729 0.0577915
47 3 5.29567 6.91958 1.81122
48 2 3.60209 8.97749 1.75936
49 1 7.13553 6.96742 -0.0481593
50 3 8.74742 8.84605 -0.0577674
51 4 9.23516 7.22036 1.95592
52 2 7.11051 8.67376 1.82221
53 1 10.6211 7.08895 -0.125849
54 1 12.5737 8.89129 0.124807
55 4 12.5346 6.9593 1.64145
56 4 10.676 9.05573 1.72392
57 3 14.2539 7.17885 -0.0913096
58 3 16.1037 8.9547 -0.0839693
59 3 16.3515 7.21412 1.57599
60 2 14.4358 8.84176 2.03075
61 1 0.0810152 10.7342 -0.107491
62 3 1.60805 12.6355 17.8893
63 3 1.65635 10.7853 1.82521
64 4 17.8778 12.696 1.53222
65 2 3.59712 10.8173 17.7489
66 3 5.29013 12.4776 17.9215
67 4 5.34523 10.6932 1.61815
68 1 3.58511 12.3826 1.67585
69 1 7.03373 10.4012 0.089681
70 2 8.8027 12.6025 17.8558
71 4 9.02812 10.7998 1.43526
72 1 6.89099 12.4172 1.57679
73 1 10.6549 10.8314 17.9266
74 2 12.4663 12.633 0.0300186
75 2 12.4285 10.8539 1.91467
76 3 10.5203 12.6551 1.49715
77 1 14.368 10.9057 -0.0438608
78 1 16.0675 12.672 0.0987188
79 4 16.2788 10.7275 1.50919
80 3 14.2333 12.5717 1.75685
81 4 17.9034 14.4575 -0.087768
82 2 1.57576 16.3108 -0.0135498
83 1 1.64106 14.5115 1.64279
84 3 17.8835 16.2028 1.60103
85 2 3.45573 14.5738 -0.036173
86 3 5.30536 16.1999 -0.105345
87 4 5.22419 14.2315 1.72725
88 1 3.74318 16.109 1.77117
89 4 6.7176 14.2996 0.0329045
90 1 9.01514 16.2542 -0.109312
91 1 8.88683 14.4943 1.65958
92 1 7.11638 16.2684 1.7509
93 3 10.6871 14.3507 17.915
94 3 12.2303 16.2169 17.7506
95 4 12.1978 14.3387 1.5838
96 1 10.7816 16.1088 1.95497
97 4 14.1886 14.3943 17.8384
98 2 15.9666 16.2579 -0.0259841
99 2 15.738 14.4732 1.74107
100 2 14.0607 16.2946 1.52502
101 3 17.9134 17.889 3.55368
102 3 1.60032 1.61861 3.598
103 1 1.81242 -0.0632006 5.49397
104 3 17.8695 1.7202 5.22367
105 4 3.41773 17.8836 3.44596
106 2 5.34697 1.66871 3.45936
107 3 5.33908 17.7051 5.34973
108 3 3.65248 1.60519 5.28555
109 2 6.94689 -0.057901 3.67367
110 2 8.82551 1.74021 3.54302
111 2 8.71872 -0.108432 5.29595
112 1 7.25669 1.65332 5.32995
113 2 10.7799 -0.0131261 3.5746
114 2 12.5893 1.48952 3.56429
115 4 12.4749 17.7795 5.31333
116 2 10.6631 1.67448 5.26658
117 2 14.3823 17.9034 3.53781
118 1 16.046 1.61714 3.58387
119 4 16.1156 -0.0511743 5.35817
120 1 14.5321 1.68621 5.4168
121 2 17.8528 3.39262 3.41862
122 2 1.59815 5.15138 3.58471
123 3 1.85161 3.29569 5.37875
124 1 -0.0921759 5.32897 5.21649
125 3 3.53712 3.51661 3.3401
126 4 5.04599 5.01955 3.32146
127 4 5.45101 3.35224 5.15117
128 4 3.46202 5.3253 5.27058
129 1 6.80971 3.44797 3.20593
130 4 9.00213 5.40343 3.67193
131 2 9.1388 3.6939 5.1994
132 4 7.2303 4.99546 5.1618
133 3 10.857 3.62857 3.51685
134 3 12.6552 5.20247 3.57644
135 4 12.4328 3.57278 5.22074
136 4 10.8563 5.38299 5.44703
137 1 14.3862 3.45671 3.79422
138 3 16.0335 5.12976 3.31275
139 1 16.0654 3.63323 5.28327
140 3 14.2095 5.2877 5.29521
141 4 -0.0791044 7.0774 3.49857
142 4 1.66916 8.71217 3.23836
143 3 1.71508 6.91719 5.38592
144 4 0.334493 8.73972 5.03006
145 1 3.34976 6.90086 3.64437
146 4 5.24627 8.85503 3.46017
147 3 5.27119 6.92092 5.12958
148 2 3.42396 8.78133 5.2996
149 3 7.4257 6.99047 3.67999
150 1 8.88165 8.89705 3.55162
151 3 9.09682 7.06727 5.62058
152 4 6.95737 8.78769 5.25905
153 2 11.0042 7.10475 3.43266
154 2 12.7211 9.06994 3.4828
155 2 12.602 7.18334 5.21521
156 4 10.8609 8.9903 5.15044
157 4 14.2115 7.08789 3.42397
158 4 16.2549 8.76301 3.5386
159 3 16.1528 6.93297 5.04798
160 3 14.2568 8.89389 5.44737
161 4 17.6837 10.908 3.50238
162 4 1.65394 12.5657 3.29083
163 2 1.54255 10.9542 5.29737
164 1 17.8276 12.512 5.26792
165 4 3.42908 10.5341 3.54378
166 2 5.36969 12.5765 3.64548
167 1 5.44802 10.6273 5.28819
168 3 3.34829 12.4947 5.18751
169 4 7.10779 10.557 3.39189
170 2 8.98922 12.4388 3.577
171 3 8.83078 10.6798 5.34519
172 3 7.15798 12.4942 5.54191
173 2 10.5815 10.8346 3.32285
174 3 12.4762 12.5454 3.50316
175 4 12.765 10.6834 5.11836
176 1 10.4121 12.4069 5.32598
177 1 14.483 10.6983 3.52943
178 3 16.062 12.7069 3.37301
179 4 15.8645 10.5706 5.46795
180 4 14.3253 12.6334 5.12835
181 2 17.6577 14.4433 3.50432
182 2 1.65743 16.0919 3.64105
183 1 1.53281 14.1262 5.21562
184 4 -0.0525588 16.211 5.27687
185 3 3.55986 14.1882 3.48289
186 3 5.58595 15.8746 3.51312
187 3 5.2652 14.2282 5.53298
188 2 3.48321 16.1071 5.35455
189 2 7.13809 14.1162 3.23343
190 4 8.89089 16.3615 3.35872
191 4 8.77722 14.2294 5.35799
192 2 7.19222 15.8723 5.34889
193 4 10.6591 14.1399 3.52111
194 2 12.6558 16.2921 3.39766
195 2 12.5151 14.2015 5.30449
196 2 10.5288 16.1423 5.23617
197 2 14.0224 14.3385 3.43437
198 1 15.79 16.2008 3.35649
199 3 16.1617 14.2737 5.41127
200 2 14.2428 15.9421 5.45941
201 1 -0.117907 -0.0385105 6.82058
202 1 1.5654 1.57253 7.20869
203 2 1.68998 -0.11151 8.87911
204 3 17.8657 1.72066 8.81833
205 2 3.36763 17.7934 7.24974
206 1 5.47143 1.7627 6.89254
207 1 5.33637 -0.126112 9.10675
208 2 3.61988 1.82581 8.90809
209 3 7.02716 17.911 7.11792
210 2 9.06923 1.55649 6.94528
211 2 9.04478 17.6351 8.98224
212 1 7.06129 1.54208 8.82427
213 2 10.5095 17.829 6.95358
214 4 12.5195 1.58672 7.09226
215 3 12.4473 -0.082463 8.84771
216 3 10.8283 1.5849 8.81867
217 3 14.3567 17.7782 7.23092
218 4 16.2432 1.68654 7.05866
219 2 16.4133 17.7217 8.76856
220 3 14.5768 1.60758 8.83458
221 2 0.0864382 3.57125 6.83435
222 1 1.74456 5.15933 7.20827
223 4 1.46239 3.36327 8.90836
224 2 -0.0777415 5.20925 8.62993
225 1 3.7689 3.58064 6.96201
226 4 5.34714 5.34777 6.96098
227 3 5.70099 3.59603 8.72191
228 4 3.50572 5.02417 9.02091
229 3 7.37433 3.47873 7.04456
230 4 9.02486 5.26132 7.00896
231 2 9.10639 3.71135 8.91767
232 2 7.14547 5.39032 8.70494
233 2 10.6814 3.58212 7.06301
234 2 12.765 5.41196 7.10882
235 2 12.6821 3.30921 8.96482
236 3 11 5.23072 8.92705
237 4 14.1849 3.42012 7.07343
238 3 16.0558 5.29326 7.04642
239 4 16.1883 3.45748 8.85662
240 1 14.2819 5.08768 8.73797
241 3 -0.0534899 6.94878 7.10291
242 4 1.9601 8.73445 7.23013
243 3 1.79454 7.11471 8.77175
244 3 0.10418 8.8177 8.89661
245 1 3.52347 6.87777 7.20059
246 1 5.17385 8.80155 7.0598
247 4 5.23524 6.95892 9.04645
248 1 3.53819 8.90734 8.98428
249 1 7.07399 7.05535 6.87466
250 2 8.74484 8.80995 7.23388
251 4 8.85863 7.09528 9.10526
252 1 6.85991 8.6135 8.69104
253 3 10.842 7.34817 7.04038
254 2 12.3864 9.08783 7.11963
255 2 12.3533 7.01296 8.93377
256 4 10.5442 8.78814 9.0307
257 2 14.6481 7.16223 7.21537
258 2 16.3432 8.9213 6.93194
259 3 16.3778 7.312 8.77651
260 3 14.5226 8.80429 8.82311
261 1 -0.0433982 10.8413 7.01581
262 2 1.82182 12.6054 7.07403
263 1 1.76262 10.6581 8.93591
264 3 0.109952 12.5938 8.62815
265 1 3.39042 10.7815 7.15341
266 3 5.24122 12.5374 7.06818
267 3 5.27098 10.9804 8.95637
268 2 3.25836 12.4867 9.14105
269 1 7.05474 10.4119 7.14089
270 4 8.89789 12.692 7.29741
271 2 8.71883 10.824 9.08352
272 1 7.20869 12.5394 8.83403
273 3 10.3935 10.7386 7.12161
274 1 12.4027 12.1971 6.92605
275 4 12.3483 10.6741 8.88837
276 3 10.5596 12.5383 8.9729
277 4 14.2491 10.5511 7.11844
278 3 15.9542 12.402 7.04899
279 3 16.4177 10.6748 8.65976
280 1 14.1341 12.33 8.83492
281 1 -0.133794 14.3521 7.08834
282 1 1.65194 15.9425 7.03545
283 4 1.56082 14.4711 8.90356
284 3 -0.00256256 16.198 8.75788
285 4 3.51048 14.3009 7.39015
286 1 4.94107 16.1503 7.53537
287 4 5.26531 13.8288 9.04077
288 4 3.42852 16.121 9.27135
289 3 7.10881 14.3645 7.35766
290 1 8.93114 15.9911 7.18615
291 1 8.9441 14.333 9.06574
292 2 6.71277 16.0324 9.12124
293 4 10.7231 14.1675 6.91622
294 4 12.1741 16.0779 7.09195
295 3 12.324 14.1593 8.74636
296 2 10.751 15.9884 9.10807
297 4 14.3827 14.3491 7.22511
298 3 16.229 16.3018 6.87413
299 1 16.0949 14.5498 8.79056
300 2 14.2306 16.0165 8.8877
301 2 17.9325 -0.0534699 10.649
302 1 1.55699 1.77809 10.8214
303 1 1.57955 -0.0268083 12.4499
304 3 -0.105412 1.81418 12.4785
305 4 3.38518 17.8647 10.7236
306 4 5.26046 1.83651 10.6587
307 2 5.31276 -0.0112464 12.3354
308 3 3.43351 1.71812 12.5615
309 1 7.24243 17.8721 10.4594
310 4 9.00263 1.60571 10.4198
311 1 9.0441 17.8247 12.5424
312 4 7.17944 1.41058 12.3639
313 3 10.7764 -0.0126798 10.7305
314 3 12.6846 1.51876 10.9415
315 2 12.6596 17.7124 12.5309
316 2 10.5451 1.69041 12.3849
317 2 14.3846 17.8639 10.2241
318 2 16.1229 1.53211 10.5305
319 2 16.1074 -0.127692 12.1905
320 4 14.4665 1.68265 12.558
321 3 17.9149 3.73382 10.6183
322 3 1.69091 5.32356 10.4788
323 4 1.63197 3.73249 12.5585
324 1 0.00745192 5.19793 12.5541
325 4 3.38152 3.21591 10.759
326 4 5.40758 5.10895 10.5724
327 4 5.51686 3.30008 12.6663
328 1 3.44353 5.3335 12.6156
329 3 7.25596 3.571 10.5046
330 4 8.98693 5.34598 10.8658
331 1 8.75354 3.4223 12.4407
332 4 6.75018 5.23877 12.4971
333 1 10.6711 3.48316 10.688
334 2 12.4302 5.29402 10.79
335 4 12.4986 3.35227 12.396
336 4 10.7146 5.36151 12.5555
337 4 14.4831 3.52981 10.8649
338 2 16.2291 5.35638 10.6978
339 3 16.1 3.46152 12.5599
340 4 14.3995 5.2335 12.6552
341 1 0.0728835 6.82063 10.7698
342 1 1.6016 8.72297 10.7788
343 2 1.87955 7.13593 12.463
344 1 0.0739438 8.84811 12.649
345 3 3.51931 6.89847 10.5225
346 3 5.39415 9.00072 10.8548
347 3 5.15221 7.18237 12.4648
348 4 3.32396 8.9603 12.4525
349 4 6.99387 6.90165 10.8641
350 1 8.61873 8.9276 10.7422
351 1 8.83884 7.18205 12.5524
352 1 7.16168 8.72045 12.5221
353 1 10.6908 7.14447 10.8954
354 1 12.5986 8.94121 10.7667
355 3 12.532 7.24593 12.5996
356 1 10.6038 8.92416 12.5319
357 1 14.1701 6.91894 10.5325
358 4 16.3519 9.02154 10.6061
359 4 16.1813 7.1879 12.4919
360 1 14.3695 8.82184 12.7292
361 2 0.0533789 10.6778 10.4124
362 4 1.72223 12.6245 10.8888
363 3 1.58747 10.7015 12.5096
364 3 -0.0209881 12.4459 12.6278
365 3 3.51473 10.5821 10.7206
366 4 5.22142 12.5525 10.8664
367 1 5.23164 10.7982 12.457
368 1 3.70311 12.4879 12.5721
369 1 6.98019 10.753 10.6142
370 4 9.03397 12.3778 10.8915
371 1 8.89135 10.7518 12.7222
372 1 7.15732 12.2864 12.4246
373 2 10.6089 10.5804 10.6221
374 1 12.5882 12.2889 10.8826
375 2 12.6881 10.5421 12.5428
376 4 10.6839 12.4514 12.5317
377 3 14.4588 10.567 10.4852
378 1 16.1102 12.5056 10.4395
379 1 16.3499 10.64 12.2612
380 2 14.3518 12.3522 12.3141
381 1 0.0628236 14.6067 10.6996
382 2 1.57451 16.3293 10.8355
383 2 1.53065 14.6591 12.5751
384 3 17.8937 16.1663 12.5924
385 2 3.37414 14.2941 10.6922
386 2 5.23104 16.1766 10.9478
387 1 5.45459 14.391 12.3159
388 1 3.40928 16.1544 12.5937
389 1 7.08327 14.1686 10.6882
390 3 9.0958 16.0625 10.8129
391 4 9.04531 14.4229 12.5537
392 4 7.20859 16.2966 12.3867
393 1 10.8109 14.046 10.7747
394 2 12.4877 15.965 10.6942
395 2 12.5457 14.1203 12.6644
396 4 10.7627 15.8469 12.6872
397 3 14.1948 14.159 10.6233
398 1 16.2019 16.0687 10.5
399 3 16.2608 14.3288 12.2158
400 3 14.2208 15.9743 12.317
401 4 17.7712 17.9325 14.2471
402 4 1.68303 1.59141 14.421
403 1 1.42778 -0.110622 16.0141
404 4 17.928 1.49576 16.0095
405 2 3.46555 0.0177791 14.2968
406 4 5.26769 1.67438 14.3373
407 4 5.27099 17.8542 16.1501
408 3 3.49129 1.88517 16.0895
409 2 7.02874 17.8629 14.0545
410 2 8.9837 1.64331 14.3669
411 2 8.61379 17.7676 16.0352
412 3 7.05792 1.88832 15.8125
413 1 10.912 17.9189 14.1934
414 1 12.711 1.70184 14.2801
415 3 12.4853 17.9088 16.0451
416 1 10.7016 1.62333 16.0753
417 4 14.3136 -0.061329 14.1473
418 2 16.2843 1.68744 14.2908
419 2 15.7642 -0.0810921 16.0172
420 4 14.1525 1.60958 16.2658
421 4 17.8786 3.40838 14.3924
422 3 1.48999 5.34861 14.401
423 2 1.46597 3.31754 16.2362
424 1 -0.083827 5.19613 16.0303
425 3 3.47905 3.74622 14.4594
426 1 5.18696 5.41613 14.4104
427 2 5.23451 3.69885 15.9054
428 2 3.40343 5.35529 16.2367
429 3 7.17933 3.66648 14.3644
430 4 8.9834 5.56461 14.4108
431 2 8.91643 3.57692 16.1466
432 1 6.88298 5.4743 16.06
433 3 10.5235 3.47974 14.1455
434 3 12.5652 5.35753 14.1538
435 2 12.3282 3.37415 15.8652
436 3 10.6927 5.16387 16.1073
437 2 14.3102 3.40619 14.1911
438 3 16.1153 5.1419 14.3766
439 3 16.2245 3.21632 16.2112
440 1 14.4376 5.28436 16.0288
441 1 17.8997 7.18093 14.4177
442 1 1.70731 8.90507 14.4294
443 4 1.57431 7.3113 16.0587
444 4 -0.084345 9.01648 16.2236
445 2 3.26774 7.07368 14.3389
446 4 5.28452 8.88705 14.1607
447 3 5.14905 7.08781 16.1132
448 2 3.60951 8.94104 16.2425
449 1 6.80799 7.17223 14.3374
450 4 8.9092 9.06381 14.409
451 3 8.82611 7.04887 16.2421
452 2 7.02546 8.6276 16.2657
453 3 10.7665 7.22723 14.3048
454 4 12.4177 8.99872 14.2548
455 3 12.4924 7.16704 16.1565
456 1 10.5319 9.01626 16.3906
457 4 14.4384 7.22529 14.4701
458 2 16.2337 8.86031 14.3295
459 3 16.2881 7.35046 16.2513
460 3 14.3078 8.85092 16.0953
461 3 -0.0293588 10.9372 14.488
462 4 1.67639 12.6508 14.5749
463 2 1.62519 10.7815 16.2228
464 4 -0.0597187 12.8853 16.2924
465 2 3.4524 10.6258 14.2802
466 1 5.21079 12.5397 14.366
467 4 5.106 10.7151 16.085
468 1 3.53183 12.8371 16.2342
469 2 7.11081 10.8137 14.4912
470 4 9.07838 12.3841 14.4549
471 1 8.78137 10.7328 16.1982
472 1 7.27541 12.6 16.148
473 2 10.7343 10.7 14.3069
474 1 12.6448 12.5393 14.36
475 1 12.551 10.5621 16.2418
476 3 10.7441 12.36 16.1478
477 2 14.6027 10.698 14.2873
478 3 16.0961 12.6374 14.1305
479 4 16.1673 10.9357 16.2072
480 3 14.3432 12.7245 16.1045
481 3 17.9103 14.3924 14.3876
482 2 1.60834 16.3957 14.3283
483 1 1.73663 14.4547 16.0255
484 4 -0.124995 16.1808 16.1654
485 4 3.29354 14.3824 14.113
486 3 5.29681 16.2716 14.1385
487 3 5.45371 14.5438 16.1643
488 4 3.43767 16.1165 16.0391
489 1 6.90515 14.3605 14.2602
490 1 8.9694 16.2753 14.254
491 1 8.88267 14.4222 15.9776
492 4 7.04853 16.2025 15.8558
493 1 10.8598 14.0279 14.3861
494 3 12.4101 16.1822 14.342
495 2 12.3986 14.3112 15.9785
496 2 10.6408 16.2069 15.8606
497 3 14.4485 14.3762 14.2574
498 2 16.0082 16.2509 14.3606
499 3 16.0758 14.4277 16.413
500 1 14.0627 16.0033 16.0285
ITEM: TIMESTEP
2500
ITEM: NUMBER OF ATOMS
500
ITEM: BOX BOUNDS pp pp pp
-1.0385059260448770e-01 1.7903850592604552e+01
-1.0385059260448770e-01 1.7903850592604552e+01
-1.0385059260448770e-01 1.7903850592604552e+01
ITEM: ATOMS id type x y z
1 2 17.73 17.8987 17.9194
2 3 1.79215 1.74852 -0.0279518
3 3 1.78317 17.9688 1.86011
4 3 0.0374269 1.48534 1.78034
5 2 3.50294 0.00944796 0.0896556
6 3 5.20385 1.82343 17.8166
7 2 5.36928 17.7613 1.65391
8 3 3.35461 1.76943 1.7042
9 4 7.18703 17.8282 -0.059423
10 1 9.07313 1.77108 0.105909
11 1 9.03564 17.9669 1.75761
12 1 7.05622 1.49333 1.51086
13 4 10.9339 -0.000190927 0.0798673
14 2 12.5804 1.45239 17.5598
15 4 12.6253 17.849 1.76321
16 1 10.7358 1.85564 1.71565
17 3 14.2251 17.7202 17.7153
18 3 15.9004 1.59066 17.7841
19 4 16.0988 -0.105194 1.99425
20 3 14.2676 1.70308 1.5047
21 1 17.8598 3.24413 0.192178
22 4 1.60883 5.50324 -0.172181
23 1 1.68703 3.60879 1.71421
24 4 -0.0849208 5.38964 1.66015
25 3 3.38171 3.4121 -0.126285
26 1 5.17071 5.05562 17.8929
27 4 5.2009 3.39162 1.61244
28 3 3.41485 5.37007 1.84657
29 2 6.91059 3.54556 -0.0642497
30 1 8.81516 5.44259 -0.104656
31 1 8.66793 3.54436 1.7039
32 4 7.07064 5.39722 1.65365
33 4 10.6814 3.76712 -0.0328682
34 4 12.7665 5.30705 17.6248
35 2 12.5309 3.50149 1.70784
36 2 10.6759 5.18708 1.65003
37 1 14.1668 3.2077 17.7163
38 1 16.0317 5.25988 17.8502
39 4 16.0792 3.41879 1.6428
40 2 14.3417 5.07738 1.73997
41 4 17.7949 7.02198 17.7535
42 3 1.43881 8.87787 17.6757
43 4 1.61488 7.35778 1.61868
44 3 17.8049 8.86854 1.53764
45 2 3.309 7.16116 0.0526299
46 4 5.37004 8.94288 0.134445
47 2 5.14648 7.27967 1.66248
48 2 3.31639 9.11312 1.5559
49 4 7.10914 7.27292 0.0826698
50 1 8.88268 8.96728 17.8801
51 2 9.10525 7.03832 1.6552
52 1 7.19671 9.15433 1.63461
53 4 10.6131 6.84587 17.8299
54 4 12.7276 8.89388 17.7865
55 3 12.6072 7.06445 1.68697
56 2 10.8877 8.67822 1.39849
57 1 14.3619 6.99041 -0.140772
58 3 16.0958 8.73684 17.8764
59 1 15.9502 6.97837 1.80155
60 4 14.2622 8.86126 1.69466
61 1 17.5225 10.7709 17.8057
62 1 1.95466 12.5724 17.9023
63 4 1.56572 10.7532 1.41129
64 2 17.9326 12.5283 1.38975
65 4 3.69332 10.7318 17.8052
66 4 5.10487 12.4451 0.17816
67 1 5.30419 10.6026 1.67679
68 2 3.18547 12.6896 1.89478
69 1 7.13192 10.7582 17.6666
70 2 8.72048 12.5519 17.8703
71 4 8.82248 10.8552 1.46436
72 3 6.977 12.3855 1.7381
73 1 10.8192 10.6918 17.6826
74 4 12.3772 12.4347 -0.0444479
75 1 12.4642 10.5421 1.64846
76 1 10.7115 12.5869 1.90206
77 4 14.3275 10.9937 17.6856
78 1 15.9667 12.6203 -0.102497
79 3 15.937 10.6079 1.52667
80 2 14.1774 12.6409 1.62805
81 3 -0.0517913 14.329 17.8395
82 3 1.48325 16.2178 -0.0249269
83 4 1.63793 14.3084 1.72294
84 1 0.0406286 16.1899 1.97065
85 2 3.60846 14.2853 17.8373
86 2 5.42439 16.1694 17.5871
87 3 5.3397 14.482 1.76283
88 3 3.44393 16.0544 1.53128
89 1 7.08276 14.4037 0.086895
90 2 9.0166 16.2743 -0.0286676
91 3 8.81752 14.2651 1.76993
92 3 7.33959 16.2263 1.75866
93 4 10.7092 14.1526 -0.0497189
94 1 12.3155 15.9951 17.6908
95 2 12.5553 14.1444 1.57938
96 4 10.6833 15.9568 1.57934
97 2 14.3225 14.6155 17.7303
98 2 16.2362 16.1395 0.188466
99 4 16.5256 14.2974 1.61191
100 1 14.3143 15.9146 1.50207
101 1 17.8743 0.0998521 3.79759
102 2 1.7576 1.69173 3.68075
103 2 1.92809 -0.0376472 5.16516
104 4 17.8633 1.60634 5.60639
105 4 3.64967 0.054474 3.46715
106 3 5.07766 1.89152 3.82917
107 2 5.40249 -0.14171 5.42848
108 2 3.46303 1.71142 5.50041
109 4 7.0665 -0.0911032 3.54508
110 2 8.73571 1.88589 3.75269
111 1 8.93173 0.178339 5.32858
112 4 6.93813 1.6293 5.21677
113 2 10.6798 17.877 3.57814
114 2 12.4755 1.84131 3.48876
115 4 12.3974 -0.142691 5.10318
116 4 10.7199 1.62801 5.56469
117 2 14.2041 -0.125234 3.39721
118 3 15.9876 1.8236 3.36322
119 2 16.042 -0.153479 5.12146
120 1 14.2763 1.71288 5.32267
121 2 -0.0524737 3.3325 3.22441
122 2 1.81698 5.50864 3.59453
123 1 1.53619 3.38395 5.33242
124 1 0.104835 5.44985 5.31429
125 2 3.2681 3.61874 3.43849
126 2 5.36334 5.13343 3.33656
127 1 5.41323 3.74921 5.32995
128 1 3.49825 5.2932 5.4344
129 4 6.96059 3.35546 3.41228
130 4 8.91383 5.15796 3.53314
131 4 8.96552 3.45563 5.44549
132 2 7.14436 5.1301 5.27397
133 2 10.5751 3.34896 3.5708
134 4 12.3972 5.19995 3.43982
135 2 12.3161 3.43843 5.54255
136 4 10.804 5.24975 5.23727
137 1 14.1599 3.41694 3.38769
138 3 16.312 5.14656 3.35233
139 2 16.3242 3.62702 5.20005
140 3 14.3283 5.06998 5.05691
141 4 0.0843269 7.19601 3.5639
142 4 1.57395 8.93636 3.44209
143 3 1.6242 7.11823 5.43187
144 2 17.9482 8.97473 5.36333
145 1 3.70847 7.36558 3.5468
146 1 5.52853 8.94875 3.46496
147 4 5.2221 7.12099 5.3136
148 1 3.64724 8.86566 5.39315
149 1 6.96085 7.10854 3.28549
150 1 8.98489 8.77124 3.42125
151 3 9.15466 6.92613 5.14812
152 4 7.29152 8.66951 5.23658
153 4 10.7459 6.92226 3.3952
154 2 12.4264 8.80596 3.36501
155 1 12.411 7.22334 5.08521
156 2 10.749 8.8225 5.49749
157 3 14.3636 6.90988 3.49719
158 2 15.8088 8.83784 3.36219
159 4 16.1593 7.11809 4.99932
160 1 13.9368 9.02126 5.16222
161 4 17.7962 10.5556 3.17753
162 3 1.68101 12.4267 3.54368
163 3 1.7705 10.4427 5.30983
164 3 0.0345946 12.1595 5.13037
165 2 3.55681 10.5008 3.48463
166 2 5.12429 12.5625 3.43724
167 2 5.3446 10.6948 5.33558
168 3 3.33233 12.4324 5.38273
169 1 7.13737 10.6349 3.46112
170 4 8.81819 12.3771 3.51254
171 4 8.96921 10.5535 5.24466
172 3 7.11309 12.6054 5.16927
173 1 10.5081 10.5183 3.06601
174 2 12.411 12.1886 3.47721
175 4 12.4742 10.8635 5.62687
176 1 10.6924 12.3439 5.17364
177 1 14.3859 10.7584 3.46144
178 2 16.0371 12.5422 3.35924
179 1 16.1098 10.6352 5.08854
180 2 14.261 12.2391 5.29951
181 3 0.0875269 14.1064 3.43274
182 4 1.77462 16.1255 3.58452
183 2 1.91897 14.1814 5.18377
184 3 -0.0507876 16.1129 5.26834
185 3 3.54129 14.4861 3.60152
186 3 5.32349 16.1314 3.62491
187 4 5.27614 14.1844 5.49128
188 3 3.73095 16.1507 5.44951
189 2 7.01431 14.2593 3.51323
190 2 9.13235 16.0389 3.56081
191 1 8.91419 14.163 5.40903
192 1 7.1633 16.2242 5.4542
193 2 10.7207 14.3291 3.50527
194 1 12.4908 16.1106 3.53785
195 4 12.4202 14.0152 5.25805
196 1 10.5457 15.9043 5.39701
197 2 14.1299 14.3535 3.28563
198 2 16.1089 16.0625 3.38576
199 3 16.0511 14.1479 5.33262
200 3 14.1995 16.2381 5.2855
201 3 17.9228 -0.258249 7.12729
202 4 1.54982 1.92316 7.19247
203 1 1.59949 17.7573 8.73602
204 2 17.7312 1.7108 8.68821
205 4 3.54359 -0.0826779 7.01994
206 4 5.31267 1.81815 7.18788
207 3 5.45954 17.8214 8.79153
208 2 3.30731 1.596 8.81106
209 4 7.17733 -0.0355795 7.11505
210 1 9.03805 1.70514 7.37665
211 3 9.05356 17.4961 9.04286
212 2 7.3846 1.68678 9.03584
213 4 10.7949 17.8101 7.29476
214 1 12.5614 1.52686 7.06125
215 1 12.5612 17.7208 8.88421
216 2 10.9517 1.50035 8.90552
217 3 14.3845 17.7956 6.99723
218 4 15.9226 1.77804 7.08961
219 1 16.0749 -0.0850564 8.82817
220 3 14.3294 1.59683 8.8553
221 1 0.0640087 3.92082 7.14039
222 4 1.79611 5.49389 7.20158
223 2 1.59075 3.75486 9.0023
224 3 -0.22431 5.42063 9.09246
225 4 3.35145 3.53793 7.06759
226 1 5.59316 5.23464 7.07953
227 4 5.2532 3.41811 8.82031
228 4 3.58001 5.37393 8.76129
229 2 7.24829 3.35764 7.1112
230 4 8.99281 5.21934 6.96571
231 1 9.15754 3.62816 9.02274
232 3 7.16668 5.11588 8.85612
233 2 10.7882 3.56707 7.48011
234 1 12.3914 5.37002 7.13094
235 2 12.5375 3.54309 8.93654
236 1 10.7778 5.51882 8.82904
237 4 14.3229 3.5805 7.09327
238 2 16.0265 5.38586 7.23076
239 3 15.932 3.69007 9.11221
240 3 14.2631 5.41424 8.96728
241 1 17.7439 7.11272 7.40733
242 2 1.51357 8.94088 7.03724
243 2 1.62713 7.09227 8.87246
244 1 17.7309 9.02007 8.98248
245 4 3.4955 7.35298 7.28287
246 1 5.40459 8.9618 7.04541
247 3 5.62025 6.95759 8.86069
248 2 3.61803 9.11615 8.94262
249 2 7.44966 7.13482 7.2598
250 3 8.97934 8.92662 7.22558
251 1 8.8983 7.0784 9.07527
252 3 6.95883 9.08314 8.80399
253 3 10.6873 7.03419 7.17708
254 2 12.5106 8.67063 7.03142
255 1 12.5113 7.30791 9.10897
256 1 10.6693 8.82775 8.93014
257 2 14.3315 7.03552 6.74088
258 1 15.9107 8.978 7.15705
259 2 16.0297 7.17423 9.04461
260 3 14.3872 8.75693 9.06559
261 3 -0.0400112 10.623 7.06921
262 4 1.46596 12.5885 6.96177
263 2 1.69816 10.5171 8.88368
264 3 17.6776 12.4057 8.93355
265 4 3.42502 10.8254 7.10106
266 4 5.46932 12.5389 7.30918
267 2 5.21454 10.6916 8.84242
268 4 3.51829 12.5122 8.73444
269 2 7.31369 10.8939 7.21643
270 1 9.14121 12.5196 7.03003
271 1 8.99874 10.5752 9.10394
272 3 7.26211 12.35 8.95591
273 1 10.5992 10.723 7.15177
274 1 12.3444 12.3807 7.3376
275 4 12.4139 10.3196 8.96606
276 2 10.6437 12.5682 8.91341
277 2 14.2739 10.4704 7.21914
278 1 16.0181 12.2686 7.01686
279 1 15.9893 10.6752 8.98371
280 2 14.2151 12.1729 8.94706
281 3 -0.0825531 14.3255 6.95958
282 2 1.74542 16.0095 6.87782
283 3 1.63218 14.2715 8.79412
284 1 17.8852 16.0775 8.68636
285 3 3.38354 14.2051 7.04331
286 3 5.44195 16.1703 7.04254
287 2 5.27048 14.3093 8.65325
288 3 3.62572 16.0428 8.64072
289 4 7.19591 14.2615 7.23983
290 2 8.96051 16.1044 6.99848
291 3 8.84319 14.3099 9.03722
292 2 7.23702 16.0631 8.73617
293 2 10.7096 14.325 7.37264
294 4 12.4393 16.0858 6.96625
295 2 12.7088 14.5183 9.03075
296 2 10.6507 15.8072 9.0681
297 3 14.2374 14.3959 6.94333
298 4 16.1542 15.8643 6.80934
299 3 15.801 14.1169 8.60971
300 4 14.4839 16.1377 8.79961
301 3 17.9124 -0.0200533 10.6739
302 3 1.65681 1.78384 10.5895
303 3 1.75475 -0.0375885 12.1968
304 4 -0.111814 1.84823 12.3433
305 1 3.49381 17.8511 10.6679
306 3 5.31409 1.40607 10.5522
307 4 5.13608 17.8434 12.4409
308 4 3.6964 1.72999 12.3132
309 4 7.12564 17.7203 10.6578
310 1 9.04282 1.70956 10.5706
311 4 8.82174 17.8065 12.3884
312 3 7.17853 1.72344 12.4293
313 2 10.551 17.9762 10.9806
314 2 12.5678 1.84072 10.695
315 1 12.4584 17.7888 12.4069
316 2 10.708 1.85447 12.5226
317 3 14.1205 17.7739 10.6139
318 1 16.0638 2.06956 10.8656
319 3 16.0324 0.0828424 12.2739
320 2 14.032 1.94801 12.4365
321 4 -0.00764916 3.69286 10.7165
322 1 1.72318 5.30341 10.8519
323 4 1.68061 3.36505 12.448
324 3 0.0272239 5.27969 12.4065
325 2 3.45632 3.41722 10.5225
326 2 5.09203 5.33821 10.6604
327 3 5.38421 3.28358 12.2942
328 1 3.58165 5.26567 12.5573
329 3 7.19348 3.60561 10.639
330 2 8.99765 5.45443 10.7144
331 4 8.92413 3.60071 12.456
332 4 7.00609 5.43831 12.648
333 1 10.8801 3.47257 10.5739
334 4 12.4611 5.31091 10.6269
335 4 12.3727 3.59594 12.4174
336 3 10.6768 5.32176 12.5216
337 2 14.2101 3.51799 10.6288
338 4 15.925 5.40204 10.7744
339 4 16.1965 3.56166 12.4719
340 1 14.1922 5.15834 12.3904
341 1 -0.00934484 7.25663 10.8084
342 4 1.76846 8.9618 10.9055
343 3 1.88005 7.03701 12.6962
344 2 -0.0289935 9.04695 12.6396
345 3 3.5605 7.12403 10.4989
346 1 5.38103 9.01234 10.7878
347 3 5.09715 7.12356 12.5433
348 4 3.6485 9.00852 12.4662
349 3 7.3184 6.90194 10.8903
350 1 8.82458 8.83583 10.8795
351 4 8.99158 6.95589 12.6164
352 3 7.05396 8.89922 12.6863
353 4 10.7441 7.22551 10.7637
354 4 12.476 8.90716 10.7877
355 4 12.5687 7.12207 12.5298
356 1 10.5704 8.86818 12.6347
357 1 14.16 6.99699 10.8655
358 1 16.0597 8.96489 10.862
359 1 16.1848 7.03708 12.3935
360 3 14.2521 8.82639 12.4219
361 4 -0.0896184 10.8157 10.6323
362 2 1.45285 12.5061 10.4336
363 4 1.69889 10.493 12.5915
364 2 17.7703 12.754 12.5255
365 3 3.46817 10.6934 10.8074
366 1 5.14142 12.3799 10.7186
367 3 5.34786 10.5898 12.673
368 2 3.58602 12.5724 12.4112
369 2 7.11354 10.7374 10.7288
370 3 8.94725 12.3973 10.6623
371 2 8.83872 10.5744 12.5863
372 2 7.03363 12.489 12.4528
373 3 10.7261 10.6059 10.8101
374 1 12.4556 12.3019 10.5079
375 4 12.4004 10.8072 12.4594
376 4 10.8061 12.5757 12.4171
377 3 14.2142 10.5606 10.7182
378 2 16.1057 12.4144 10.8618
379 1 16.467 10.7798 12.6304
380 1 14.3368 12.336 12.4863
381 2 17.6512 14.568 10.5695
382 4 1.75545 16.1219 10.5544
383 3 1.54721 14.3595 12.3208
384 2 -0.139413 16.108 12.3508
385 4 3.49353 14.2429 10.418
386 4 5.09504 16.0515 10.5955
387 4 5.44742 14.3658 12.6717
388 1 3.44962 15.7627 12.249
389 2 6.80689 14.4392 10.6854
390 1 8.83285 15.7382 10.7594
391 4 8.73398 14.2256 12.5219
392 4 7.02355 16.1179 12.6085
393 1 10.734 14.3503 10.7691
394 1 12.4519 15.8665 10.7101
395 3 12.4829 14.1356 12.5915
396 4 10.6921 16.0012 12.4067
397 1 14.3405 14.2286 10.8663
398 1 16.0745 16.256 10.5132
399 3 16.0543 14.286 12.5346
400 4 14.5198 16.1665 12.3723
401 1 -0.059205 -0.0499547 14.0165
402 4 1.58033 1.70742 14.34
403 2 1.58984 0.00188482 16.3936
404 3 18.0066 1.75349 16.0301
405 4 3.61321 0.128984 14.375
406 2 5.36612 1.5179 14.187
407 4 5.3711 -0.0261859 16.119
408 1 3.37391 1.61279 16.2721
409 3 7.26729 -0.0502845 14.2358
410 1 8.93337 1.48438 14.3207
411 2 8.99597 -0.107831 16.1419
412 3 7.11511 1.68991 16.0227
413 1 10.639 -0.188535 14.1478
414 1 12.4764 1.82368 14.2836
415 2 12.6249 -0.0656967 15.7446
416 3 10.676 1.62416 15.9946
417 3 14.4202 0.0889216 14.1146
418 4 16.1464 1.5015 14.1737
419 2 16.1434 17.8004 16.019
420 1 14.3755 1.6747 15.8776
421 4 17.8361 3.4125 14.1904
422 1 1.77638 5.33367 14.3555
423 4 1.55681 3.5939 16.2821
424 2 17.7043 4.89711 16.2921
425 1 3.56331 3.62212 14.2148
426 4 5.39409 5.26106 14.5305
427 3 5.13126 3.48365 15.9376
428 3 3.44228 5.17496 16.2455
429 2 6.99277 3.24177 14.2974
430 3 8.91983 5.19917 14.2361
431 1 8.89705 3.49345 16.153
432 4 7.0443 5.21893 16.2248
433 3 10.7894 3.56323 14.4415
434 3 12.6295 5.48226 14.4265
435 1 12.5626 3.62391 16.1073
436 4 10.5331 5.2352 15.9867
437 2 14.2095 3.48603 14.1384
438 2 16.1642 5.3396 14.3278
439 1 15.9404 3.39529 15.8011
440 1 14.5495 5.19665 16.0271
441 3 17.8252 7.0317 14.3264
442 3 1.74009 8.86403 14.3781
443 1 1.52361 7.03545 16.1285
444 1 17.9776 8.91962 15.7911
445 1 3.44978 7.12491 14.6155
446 4 5.37779 8.75477 14.3318
447 3 5.15134 6.91349 16.2733
448 2 3.6122 8.87459 16.3129
449 3 7.28456 7.23496 14.3592
450 3 9.20446 8.89274 14.4717
451 2 8.84106 7.18577 16.122
452 4 6.82945 9.08671 16.0808
453 3 10.7884 7.12568 14.5827
454 3 12.402 8.92275 14.3252
455 4 12.6205 7.1795 16.2347
456 4 10.7978 8.99241 16.2836
457 4 14.2505 7.05335 14.1384
458 2 16.1733 8.83702 14.2202
459 2 15.9131 7.31083 16.0268
460 1 14.3413 9.02767 15.8015
461 2 -0.0380394 10.7346 14.3131
462 2 1.68323 12.5223 14.1129
463 3 1.67059 10.7199 16.1176
464 3 -0.161422 12.6469 16.0978
465 3 3.33334 10.5973 14.309
466 4 5.21757 12.6373 14.3196
467 1 5.02764 10.7486 15.77
468 2 3.42216 12.5103 15.9761
469 3 7.14532 10.8664 14.4878
470 3 8.8971 12.4258 14.251
471 4 8.99622 10.618 15.975
472 2 6.84074 12.7559 16.3367
473 3 10.7407 10.7691 14.3852
474 3 12.6204 12.6388 14.2436
475 4 12.6113 10.8365 16.049
476 3 10.5934 12.468 16.0416
477 2 14.1904 10.6864 14.176
478 3 15.9618 12.5197 14.3317
479 2 16.0724 10.7244 15.9768
480 1 14.4187 12.8063 16.0761
481 1 0.142491 14.447 14.3581
482 4 1.69335 16.3816 14.0576
483 3 1.85393 14.5519 16.2692
484 2 -0.0962471 16.0336 16.006
485 3 3.11218 14.4368 14.3547
486 4 5.15694 16.1642 14.3471
487 3 5.14487 14.3224 16.1365
488 3 3.28554 16.4097 16.1416
489 3 7.07329 14.1352 14.2916