ITEM: TIMESTEP
2000
ITEM: NUMBER OF ATOMS
2048
ITEM: BOX BOUNDS pp pp pp
-7.2384445025557298e-02 2.8552384445025606e+01
-7.2384445025557298e-02 2.8552384445025606e+01
-7.2384445025557298e-02 2.8552384445025606e+01
ITEM: ATOMS id type x y z
1 4 28.4333 -0.0403376 28.4583
2 2 1.70317 1.82886 0.0500993
3 4 1.62247 28.4221 1.56781
4 2 -0.0704917 1.59014 1.81137
5 2 3.54137 0.241485 28.5516
6 3 5.39053 1.79608 -0.0461417
7 3 5.23805 0.0430116 1.73691
8 1 3.46179 1.77374 1.7601
9 1 7.10668 28.467 -0.039573
10 4 8.7969 1.78809 28.5181
11 2 8.83276 0.119774 1.67699
12 4 7.04501 1.76809 1.70962
13 4 10.4483 28.4964 0.0283656
14 1 12.342 1.60909 0.00661566
15 3 12.4758 -0.0564697 1.71384
16 1 10.5145 1.8441 1.69628
17 3 14.1161 28.5509 -0.0609186
18 3 15.8289 1.81807 28.4897
19 4 15.9908 -0.0170339 1.75759
20 2 14.1246 1.80909 1.66328
21 3 17.682 28.4709 28.5083
22 3 19.6488 1.59844 -0.0291341
23 2 19.8182 28.488 1.70222
24 2 17.9302 1.61895 1.59499
25 3 21.4285 28.4571 -0.0524204
26 3 23.1165 1.82785 -0.0538555
27 2 23.2504 28.4616 1.85934
28 1 21.527 1.63429 1.72323
29 2 24.9903 0.129229 -0.0303983
30 3 26.6625 1.81784 0.159488
31 2 26.6891 28.3779 1.70087
32 4 24.9939 1.54302 1.86011
33 2 28.512 3.54285 -0.0678727
34 1 1.69421 5.50091 -0.0469238
35 1 1.48051 3.43438 1.74597
36 4 28.4369 5.38054 1.75831
37 2 3.45999 3.60932 0.167823
38 3 5.2645 5.44106 0.139787
39 4 5.34237 3.43437 1.76348
40 2 3.43785 5.3062 1.65319
41 1 7.04576 3.6418 0.057242
42 4 8.98832 5.20085 28.4691
43 3 8.82581 3.45678 1.73176
44 4 7.12368 5.44817 1.88841
45 1 10.6617 3.44469 28.5227
46 2 12.4941 5.25922 28.5028
47 3 12.424 3.48696 1.75613
48 2 10.4926 5.1396 1.65496
49 4 14.2549 3.4043 -0.00771278
50 3 16.1733 5.4324 28.4977
51 1 16.1086 3.4235 1.64278
52 2 14.3237 5.3409 1.60573
53 3 17.8987 3.50479 28.4639
54 1 19.6765 5.22319 -0.0655031
55 4 19.6118 3.43442 1.72252
56 1 17.9088 5.27799 1.70379
57 3 21.3778 3.42708 -0.0434039
58 3 23.1314 5.32312 28.5221
59 3 23.3329 3.31652 1.8152
60 2 21.3739 5.09713 1.67477
61 1 24.8981 3.47349 0.0581248
62 3 26.7495 5.21721 0.0729399
63 3 26.7035 3.49341 1.78248
64 4 24.8545 5.1265 1.69548
65 2 28.4488 7.09298 28.534
66 3 1.77702 8.90768 28.499
67 4 1.71158 7.10473 1.76438
68 1 28.4027 8.78036 1.63643
69 4 3.44396 7.20706 0.104738
70 2 5.36343 8.85827 -0.0115808
71 4 5.30517 7.3776 1.93694
72 1 3.46784 8.95487 1.67653
73 1 7.12952 7.15764 -0.0545358
74 2 8.79115 8.7923 0.0458957
75 2 8.96543 7.04563 1.79896
76 3 7.11893 8.86891 1.75393
77 4 10.7013 7.15494 28.5117
78 1 12.4319 8.80109 -0.0497608
79 1 12.5689 7.07233 1.50607
80 3 10.8128 8.81688 1.69699
81 1 14.222 7.05614 28.4739
82 2 16.2233 9.0545 28.5433
83 1 16.071 7.1324 1.66616
84 3 14.4445 8.8178 1.62555
85 2 17.8849 7.01981 0.00733532
86 3 19.5643 8.84244 28.5216
87 4 19.6638 7.02496 1.69303
88 4 17.7922 8.93669 1.65668
89 1 21.2881 7.11761 -0.0135501
90 2 23.1881 8.74288 28.4751
91 4 23.318 6.92693 1.75426
92 1 21.4922 8.81027 1.64136
93 4 24.8643 6.95109 0.00712791
94 3 26.737 8.75673 -0.00445983
95 3 26.5081 7.06554 1.67794
96 1 25.0339 8.8723 1.62846
97 1 28.4279 10.6732 28.4872
98 2 1.67329 12.4837 -0.0701089
99 2 1.56183 10.6722 1.51711
100 2 28.5013 12.3821 1.6933
101 1 3.45454 10.5273 28.4934
102 3 5.32253 12.4644 28.4377
103 2 5.25859 10.6764 1.65051
104 3 3.48378 12.2354 1.65458
105 4 7.23479 10.5771 28.5173
106 2 8.8573 12.4742 0.0275875
107 3 9.13419 10.5927 1.86606
108 1 7.09864 12.3631 1.62409
109 2 10.5504 10.6017 28.4503
110 2 12.442 12.475 0.151315
111 2 12.3556 10.7105 1.6559
112 3 10.644 12.4923 1.74892
113 2 14.4247 10.6919 -0.0115998
114 2 16.1202 12.561 28.4976
115 3 16.2372 10.8309 1.69688
116 2 14.3318 12.6161 1.60063
117 2 17.9005 10.7257 28.3848
118 4 19.5384 12.4815 0.018511
119 1 19.5162 10.6213 1.61348
120 4 17.9648 12.4813 1.70686
121 2 21.4687 10.7712 0.00917545
122 2 23.1454 12.5015 -0.0414073
123 4 23.1519 10.6286 1.6843
124 4 21.3381 12.614 1.72222
125 3 25.0265 10.7046 28.5409
126 1 26.8091 12.3906 28.4633
127 3 26.8522 10.7536 1.71962
128 4 24.9331 12.4925 1.56516
129 1 28.5312 14.0499 28.5345
130 1 1.77462 15.841 28.4627
131 2 1.86731 14.2836 1.64632
132 3 -0.0321792 16.0364 1.75568
133 4 3.5627 14.201 28.4115
134 4 5.37238 15.9796 28.485
135 3 5.11335 14.0307 1.59813
136 3 3.73068 16.0944 1.57717
137 4 7.20242 14.1839 28.4929
138 1 9.02667 16.073 -0.0489525
139 4 8.85967 14.2798 1.72748
140 3 7.07296 15.9049 1.77174
141 4 10.7498 14.2442 28.4228
142 3 12.4994 16.0156 28.5119
143 4 12.4394 14.418 1.76484
144 4 10.6853 15.9688 1.73193
145 3 14.1701 14.1709 28.3788
146 1 15.8631 16.0423 28.5242
147 1 16.0907 14.3466 1.61068
148 2 14.343 16.0309 1.6486
149 4 17.8919 14.385 -0.0709736
150 3 19.7422 16.117 28.5285
151 3 19.5204 14.4015 1.83417
152 4 17.7366 16.1282 1.60969
153 2 21.4248 14.3168 0.0213231
154 2 23.1881 16.2579 28.544
155 2 23.3195 14.3302 1.7076
156 3 21.5322 16.0612 1.69901
157 4 25.1588 14.2941 -0.0373114
158 4 26.957 16.087 0.033391
159 4 26.8671 14.2527 1.76757
160 1 25.1194 15.9319 1.74124
161 3 -0.0697239 17.7844 -0.0423765
162 3 1.78469 19.5769 28.449
163 2 1.6928 17.7629 1.62431
164 4 -0.0446266 19.499 1.77711
165 4 3.41353 17.6892 28.3765
166 2 5.223 19.5151 -0.0132054
167 4 5.26224 17.8095 1.73952
168 4 3.35359 19.4729 1.69992
169 4 7.08196 17.5898 0.00781181
170 2 8.92563 19.5239 0.00589365
171 3 8.92221 17.658 1.78607
172 4 7.08437 19.5756 1.61966
173 2 10.6462 17.8568 28.5315
174 3 12.4846 19.4631 28.4618
175 3 12.4817 17.9033 1.66177
176 3 10.7335 19.6813 1.64543
177 3 14.1595 17.7802 28.4032
178 1 15.9613 19.5589 28.5451
179 4 16.0357 17.8044 1.66775
180 3 14.2358 19.6075 1.72031
181 2 17.8734 17.7179 28.5279
182 2 19.414 19.6383 28.4594
183 1 19.8061 17.7109 1.62585
184 4 17.8127 19.6545 1.80882
185 4 21.486 17.9662 -0.0260277
186 1 23.2656 19.6753 -0.0571119
187 3 23.1555 17.8451 1.81993
188 2 21.4081 19.7173 1.77725
189 2 25.2451 17.9123 -0.0447229
190 3 26.752 19.7167 -0.0553025
191 3 26.7512 17.7989 1.76135
192 2 24.993 19.6229 1.725
193 1 -0.0479844 21.4049 28.393
194 2 1.66789 23.0747 28.4205
195 2 1.86637 21.4236 1.46132
196 2 0.0724404 23.0366 1.8574
197 2 3.45743 21.3987 28.5146
198 4 5.23569 23.1517 -0.0599743
199 4 5.10734 21.2471 1.69
200 2 3.53514 23.0297 1.71098
201 1 7.06435 21.3854 0.00750851
202 3 8.79384 23.1589 0.0355841
203 2 8.82611 21.3508 1.74617
204 4 7.03738 23.197 1.70507
205 2 10.714 21.4059 28.3065
206 4 12.5227 23.1747 28.5184
207 3 12.4226 21.251 1.5382
208 2 10.632 23.1129 1.70573
209 4 14.2077 21.3857 -0.0472724
210 2 15.993 23.1849 28.4943
211 2 16.2142 21.4604 1.70571
212 4 14.1743 23.1898 1.71058
213 2 17.6969 21.5051 28.5165
214 3 19.6119 23.2112 28.4668
215 1 19.4149 21.309 1.45169
216 1 17.8202 23.3145 1.65257
217 3 21.3778 21.3181 28.389
218 3 23.1278 23.2315 28.4249
219 3 23.085 21.3849 1.6747
220 1 21.3476 23.0603 1.63273
221 2 24.949 21.4696 0.0864707
222 3 26.8008 23.0304 28.4831
223 1 26.802 21.457 1.82377
224 2 24.8251 23.1033 1.83905
225 1 0.00148533 24.8782 -0.0442314
226 1 1.71498 26.8844 28.4752
227 4 1.6207 24.9125 1.70955
228 3 -0.0499789 26.5879 1.55282
229 4 3.32266 24.7334 -0.0249622
230 3 5.17933 26.8869 -0.0580282
231 2 5.27962 25.0816 1.69495
232 2 3.45882 26.8332 1.66844
233 2 7.01136 25.0576 -0.0500088
234 2 8.78844 26.7861 28.4507
235 2 8.78678 25.1119 1.73562
236 1 7.13734 26.9284 1.72996
237 3 10.5548 24.9014 28.3549
238 4 12.362 26.9159 28.5097
239 3 12.3093 24.9386 1.73655
240 1 10.6646 26.788 1.64819
241 4 14.1498 24.9603 -0.0255751
242 3 15.9077 26.8654 -0.0392575
243 4 16.0377 25.0566 1.70447
244 3 14.2286 26.7082 1.74146
245 3 17.6907 25.0706 -0.0720571
246 4 19.5187 26.7995 0.0294018
247 4 19.5266 24.9888 1.71947
248 4 17.7074 26.8713 1.84952
249 1 21.2507 25.0947 0.0441302
250 2 23.2128 26.6219 -0.000150838
251 4 23.2065 24.9218 1.75285
252 1 21.4222 26.6492 1.74224
253 1 24.9094 24.9236 -0.0616458
254 2 26.6751 26.658 28.4885
255 2 26.7382 24.9639 1.72314
256 3 24.9494 26.6538 1.74726
257 2 28.4573 28.3881 3.51752
258 2 1.89108 1.73442 3.4472
259 4 1.73915 0.0332038 5.32705
260 3 28.512 1.68862 5.35195
261 3 3.47079 28.4252 3.55162
262 2 5.09598 1.56389 3.6537
263 1 5.16719 28.3039 5.25318
264 1 3.5003 1.77338 5.23777
265 3 7.02327 -0.0497936 3.43707
266 4 8.84209 1.62145 3.59206
267 3 8.83421 -0.0373071 5.31663
268 2 7.0376 1.61922 5.19405
269 3 10.6573 0.00273381 3.45214
270 1 12.5111 1.70663 3.54862
271 2 12.4065 -0.0146676 5.429
272 4 10.5989 1.7104 5.3461
273 1 14.1431 -0.0368579 3.46511
274 2 15.8351 1.77124 3.40929
275 3 16.008 28.3415 5.14922
276 1 14.2894 1.56135 5.2798
277 1 17.8438 0.0793521 3.35293
278 3 19.8785 1.65041 3.53345
279 1 19.4493 -0.045079 5.35509
280 3 17.8124 1.84608 5.17172
281 3 21.4508 28.3501 3.48875
282 4 22.9506 1.66132 3.52034
283 1 23.1441 28.3264 5.37169
284 1 21.3869 1.63767 5.43986
285 4 25.0481 28.3584 3.72158
286 3 26.7902 1.63261 3.65818
287 4 26.8542 28.53 5.33402
288 1 24.8421 1.5805 5.1831
289 1 28.5061 3.56026 3.58194
290 1 1.78936 5.34074 3.4352
291 3 1.77588 3.58457 5.47613
292 2 28.4092 5.3084 5.22726
293 4 3.62967 3.6534 3.46861
294 4 5.29148 5.30123 3.46842
295 1 5.37573 3.51639 5.20793
296 2 3.51246 5.30768 5.21864
297 4 7.0928 3.40647 3.52531
298 3 8.9162 5.26965 3.58199
299 4 8.80902 3.49584 5.27956
300 2 7.22814 5.43079 5.26152
301 2 10.6185 3.52352 3.37358
302 3 12.5632 5.33313 3.46771
303 1 12.4355 3.51328 5.34957
304 3 10.8145 5.33206 5.17408
305 1 14.2409 3.46829 3.52123
306 3 16.1372 5.18548 3.49378
307 2 16.0724 3.49393 5.27156
308 4 14.3369 5.52687 5.24802
309 4 17.9082 3.49541 3.43102
310 3 19.7258 5.1241 3.55097
311 4 19.6793 3.42138 5.31097
312 4 17.9342 5.25547 5.30275
313 1 21.4967 3.42534 3.58006
314 1 23.2512 5.16075 3.51619
315 2 23.1605 3.39453 5.31871
316 2 21.494 5.24181 5.43613
317 2 24.9738 3.46502 3.63515
318 2 26.6268 5.1111 3.58917
319 2 26.6564 3.34509 5.31148
320 3 24.9793 5.2462 5.29568
321 3 28.4518 7.05597 3.45363
322 4 1.61684 8.86188 3.4431
323 3 1.58971 7.11114 5.24731
324 3 28.3693 8.84522 5.20952
325 4 3.41952 7.12034 3.49953
326 1 5.19224 9.11051 3.49613
327 4 5.22388 7.16736 5.16951
328 1 3.40865 8.85468 5.42092
329 4 7.19769 7.01504 3.60999
330 4 8.97483 8.8419 3.45015
331 3 8.97932 7.11804 5.32984
332 4 7.0071 8.80427 5.31802
333 1 10.7756 7.0624 3.27125
334 4 12.5998 8.85928 3.21536
335 4 12.5106 7.24095 5.19841
336 4 10.7437 8.79517 5.0124
337 1 14.3428 7.02226 3.40879
338 4 15.98 9.17818 3.41043
339 3 16.1282 7.12853 5.05426
340 1 14.3549 8.87658 4.96713
341 4 17.8836 6.92694 3.50898
342 1 19.7938 8.91079 3.43032
343 2 19.6825 7.02253 5.21761
344 4 17.8589 8.90507 5.13815
345 3 21.3966 7.10334 3.4172
346 3 23.1518 8.98022 3.46463
347 3 23.1007 7.20071 5.17912
348 4 21.3511 8.9335 5.12791
349 4 24.9988 7.12957 3.46936
350 4 26.5786 9.04521 3.58105
351 1 26.7642 7.00829 5.13726
352 1 24.8804 8.82939 5.23237
353 1 28.5178 10.5399 3.52581
354 4 1.59655 12.2872 3.32741
355 3 1.70288 10.7065 5.17452
356 4 -0.0667912 12.4915 5.2132
357 1 3.41765 10.5694 3.3783
358 1 5.37888 12.4025 3.42538
359 1 5.24802 10.7479 5.21968
360 1 3.42549 12.5385 5.02212
361 2 7.06799 10.6633 3.42316
362 1 8.83598 12.3669 3.53109
363 3 8.73251 10.5763 5.22285
364 3 7.27446 12.4273 5.25173
365 3 10.7956 10.6811 3.56441
366 1 12.5435 12.6174 3.49317
367 1 12.5334 10.6066 5.3212
368 4 10.7169 12.5027 5.26251
369 4 14.23 10.7691 3.44253
370 1 16.1317 12.5066 3.53438
371 4 16.099 10.6063 5.38257
372 4 14.3273 12.3808 5.34743
373 2 17.8423 10.5675 3.46498
374 1 19.6422 12.4532 3.55435
375 2 19.7361 10.8301 5.18427
376 4 17.8494 12.5614 5.44785
377 3 21.4751 10.7887 3.35371
378 1 23.2642 12.5209 3.62669
379 4 23.2094 10.5262 5.15215
380 2 21.4188 12.375 5.11448
381 1 24.9843 10.7381 3.46499
382 2 26.7472 12.4208 3.47154
383 2 26.6992 10.6752 5.32257
384 3 25.0055 12.4406 5.24339
385 2 0.045608 14.2522 3.49271
386 2 1.96273 15.9809 3.24124
387 1 1.78529 14.1835 5.24866
388 1 0.0055691 16.01 5.28336
389 4 3.50456 14.1961 3.40756
390 3 5.39434 16.1086 3.49873
391 1 5.23716 14.1018 5.33028
392 1 3.56524 16.0406 5.26843
393 1 7.09553 14.2702 3.67412
394 2 8.83921 15.9891 3.52201
395 2 8.99383 14.2546 5.20317
396 1 7.13933 16.0535 5.33108
397 3 10.593 14.2598 3.39219
398 1 12.5777 16.1401 3.39345
399 3 12.5393 14.1891 5.37251
400 3 10.7012 16.0912 5.0745
401 1 14.2721 14.4198 3.46072
402 2 16.174 16.1208 3.49238
403 4 15.8776 14.3314 5.35053
404 4 14.1268 16.1281 5.18704
405 2 17.8198 14.2928 3.49713
406 1 19.5691 16.0537 3.63511
407 3 19.708 14.3217 5.42589
408 4 17.6943 16.0404 5.21654
409 2 21.3331 14.1971 3.60688
410 2 23.334 15.8391 3.62336
411 2 23.0794 14.2702 5.3898
412 3 21.4494 16.1962 5.33824
413 3 25.168 14.2014 3.44605
414 1 26.7791 16.1203 3.43928
415 4 26.8999 14.3259 5.18095
416 3 25.0589 15.948 5.25611
417 4 0.115884 17.6767 3.52545
418 2 1.83522 19.6463 3.63524
419 2 1.7243 17.8025 5.51154
420 1 28.4732 19.3127 5.33
421 4 3.44645 17.8225 3.57671
422 4 5.26368 19.5938 3.55644
423 2 5.33671 17.7466 5.32422
424 3 3.54783 19.5034 5.34443
425 4 7.12195 17.8591 3.43147
426 3 8.88933 19.5354 3.42242
427 2 8.79171 17.9731 5.25488
428 2 7.04957 19.6341 5.36509
429 1 10.7433 17.8956 3.49862
430 3 12.5231 19.7176 3.45937
431 2 12.3505 17.856 5.33637
432 1 10.6676 19.6918 5.20495
433 1 14.3373 17.9108 3.54129
434 3 16.0426 19.4893 3.45131
435 2 16.1426 17.8044 5.21995
436 3 14.2249 19.7045 5.46544
437 2 17.9442 17.9338 3.3445
438 3 19.5174 19.5394 3.50746
439 3 19.3592 17.9073 5.36371
440 3 17.6644 19.6343 5.36944
441 4 21.32 17.8704 3.49023
442 4 23.1497 19.7357 3.57582
443 4 23.338 17.8334 5.24651
444 1 21.3741 19.5341 5.20285
445 2 24.9899 17.7773 3.54794
446 1 26.7713 19.5431 3.50459
447 4 26.7952 17.6726 5.40928
448 2 24.9527 19.6359 5.22397
449 3 -0.0543976 21.1421 3.64667
450 1 1.7813 22.9776 3.5592
451 1 1.67926 21.2577 5.40008
452 2 0.027474 23.0323 5.37599
453 3 3.51254 21.2762 3.59486
454 3 5.38078 23.0319 3.42699
455 1 5.23807 21.4185 5.3941
456 3 3.52415 23.0746 5.3129
457 1 6.91472 21.2483 3.40805
458 2 8.76394 23.1428 3.28807
459 4 8.73676 21.3852 5.07004
460 3 7.08017 23.1752 5.20556
461 3 10.6894 21.3498 3.40455
462 3 12.4471 23.0232 3.45932
463 2 12.3973 21.5352 5.42168
464 4 10.6049 23.0813 5.27486
465 2 14.28 21.199 3.54181
466 4 15.9846 23.3514 3.4368
467 1 16.0702 21.5359 5.24401
468 4 14.2893 23.169 5.3086
469 2 17.7758 21.5502 3.40248
470 4 19.5458 23.1813 3.44194
471 1 19.5342 21.482 5.3084
472 4 17.6927 23.3004 5.34014
473 2 21.2589 21.3357 3.56761
474 4 23.1171 23.0141 3.47003
475 4 23.2979 21.4383 5.31619
476 1 21.4116 23.1487 5.21065
477 2 25.0918 21.3077 3.60911
478 3 26.7909 23.0412 3.75763
479 3 26.785 21.2778 5.48094
480 4 24.8789 23.2601 5.44577
481 3 28.4578 24.6695 3.61659
482 2 1.51914 26.4727 3.60966
483 3 1.70776 24.7706 5.35308
484 1 28.5179 26.6998 5.33795
485 4 3.48512 24.7618 3.45518
486 1 5.24662 26.7981 3.35891
487 3 5.31499 24.9582 5.26295
488 3 3.39441 26.5556 5.31925
489 1 7.00752 24.9776 3.57673
490 1 8.86576 26.9592 3.52498
491 1 8.86028 24.9609 5.25013
492 4 7.16331 26.7148 5.28376
493 1 10.6212 24.9899 3.48994
494 4 12.3376 26.7671 3.50239
495 2 12.4341 24.8454 5.18283
496 2 10.8298 26.9478 5.34509
497 3 14.0988 25.0095 3.56184
498 2 16.144 26.5939 3.5119
499 3 15.9445 24.9539 5.35185
500 3 14.2502 26.8031 5.24574
501 4 17.7525 24.9507 3.51535
502 4 19.5723 26.6937 3.37154
503 1 19.4071 24.8575 5.31277
504 1 17.7723 26.6547 5.23066
505 1 21.5318 25.0241 3.59294
506 3 23.2809 26.5751 3.71002
507 4 23.0955 25.0246 5.43802
508 2 21.2815 26.7421 5.34013
509 3 24.9237 24.8891 3.59948
510 2 26.7913 26.6209 3.62554
511 1 26.7511 24.8391 5.45174
512 1 24.9705 26.5965 5.57962
513 4 -0.0195201 28.4297 7.08499
514 2 1.56881 1.68524 7.0068
515 1 1.8 28.5382 8.80752
516 1 0.00483699 1.67179 8.88239
517 4 3.58616 28.4526 6.99988
518 4 5.3969 1.51763 7.01265
519 3 5.32778 -0.0660506 8.81089
520 3 3.60104 1.6064 8.70783
521 3 7.26384 28.5328 7.17167
522 4 8.90312 1.67538 7.17081
523 4 8.99816 -0.0705 8.93824
524 1 7.16007 1.72164 8.84106
525 4 10.5957 -0.0658995 7.22121
526 4 12.5448 1.73749 7.0115
527 1 12.3748 0.0567311 9.08758
528 4 10.6407 1.7757 8.92143
529 4 14.1177 0.063537 7.18681
530 2 15.9746 1.74906 7.14603
531 1 15.997 -0.0470331 8.90873
532 4 14.147 1.76857 8.80906
533 4 17.7607 28.4955 7.08999
534 3 19.5445 1.84883 6.95074
535 3 19.5164 -0.0530228 8.94869
536 3 17.7095 1.74114 8.95817
537 3 21.3383 -0.000840285 6.99908
538 1 23.2122 1.67657 7.11893
539 4 23.1684 28.5184 8.87244
540 2 21.3479 1.72442 8.77603
541 3 24.9471 -0.0347748 7.25598
542 3 26.8606 1.68013 7.02751
543 3 26.8429 0.0373304 8.73896
544 4 25.0657 1.86061 8.92108
545 1 28.5281 3.69573 7.02595
546 1 1.61196 5.37846 6.97332
547 1 1.70041 3.35061 8.80162
548 1 0.0781899 5.27314 8.88391
549 3 3.38782 3.54221 7.11098
550 1 5.2852 5.25345 7.0075
551 4 5.29103 3.38936 8.68092
552 1 3.49861 5.25726 8.83429
553 4 7.08647 3.53751 7.10595
554 4 8.77539 5.34416 7.0416
555 4 8.85416 3.44901 8.7814
556 4 7.24359 5.24575 8.88978
557 2 10.686 3.47115 7.02942
558 4 12.4807 5.29505 7.02367
559 1 12.3209 3.50384 8.7434
560 1 10.727 5.26224 8.79396
561 3 14.4131 3.5119 7.02301
562 4 15.8595 5.36029 6.9723
563 1 15.995 3.55671 8.93395
564 4 14.0279 5.18186 8.84708
565 3 17.8467 3.63257 7.02568
566 4 19.7085 5.21541 7.05591
567 3 19.4997 3.50205 8.82237
568 4 17.8234 5.37174 8.84034
569 3 21.4434 3.51059 7.07098
570 2 23.2769 5.33596 7.06952
571 3 23.127 3.51507 9.00787
572 4 21.2957 5.30194 8.84275
573 3 25.0435 3.47905 7.09403
574 1 26.6983 5.37152 7.16384
575 1 26.7847 3.4711 8.82393
576 3 24.9512 5.22949 8.87279
577 4 28.3639 6.92194 6.99258
578 3 1.69441 8.81751 6.94711
579 1 1.64856 7.09065 8.94403
580 1 0.0160305 8.93853 8.83255
581 4 3.59386 6.90654 6.928
582 2 5.26077 8.96783 7.04384
583 1 5.30241 7.09109 8.75657
584 3 3.47723 8.9289 8.76295
585 4 7.06897 6.88369 6.9968
586 2 8.86206 8.82655 7.06041
587 4 9.00151 7.09642 8.82516
588 4 7.09808 8.74335 8.70845
589 2 10.7761 7.09657 7.02599
590 1 12.3696 8.96816 7.08507
591 3 12.341 7.27091 8.86375
592 2 10.5917 8.89797 9.0166
593 4 14.1602 7.27053 7.07893
594 4 16.1293 8.67148 6.84512
595 2 16.0735 7.11758 8.88154
596 2 14.2545 9.00105 8.75646
597 1 17.8432 6.99322 6.85436
598 3 19.5919 8.93804 7.02632
599 2 19.6235 6.97508 8.67112
600 3 17.8662 8.8111 8.80305
601 3 21.2417 7.13587 7.02105
602 3 23.0197 8.77293 7.05371
603 2 23.3982 6.99236 8.9276
604 2 21.2573 8.80356 8.84814
605 3 24.9125 7.12976 6.98066
606 2 26.913 8.92675 7.14511
607 4 26.8889 7.11246 8.88334
608 1 25.0785 8.89192 8.96652
609 2 28.4613 10.8567 6.83342
610 4 1.76356 12.3982 6.97679
611 2 1.56609 10.65 8.63499
612 2 28.4552 12.3543 8.8324
613 1 3.50022 10.6614 6.94079
614 1 5.21035 12.5677 7.1207
615 3 5.41599 10.6613 9.03044
616 4 3.53097 12.1358 8.85701
617 3 7.00978 10.8371 7.09775
618 1 8.96287 12.4121 7.08729
619 3 8.82345 10.6369 8.76706
620 1 7.15838 12.5449 8.80936
621 3 10.5221 10.6067 6.93464
622 1 12.5727 12.4399 7.0369
623 3 12.7011 10.7214 8.92494
624 3 10.7642 12.1535 8.76666
625 1 14.3047 10.5469 6.88596
626 2 16.2905 12.4952 7.18179
627 1 16.1 10.5677 8.639
628 1 14.1987 12.475 8.69116
629 1 17.9016 10.5138 7.05799
630 1 19.6586 12.4152 7.16586
631 3 19.7056 10.6982 9.00078
632 3 17.8606 12.5456 8.91183
633 1 21.3143 10.5044 7.03402
634 2 23.0921 12.451 6.94685
635 4 23.0758 10.6162 8.78539
636 2 21.3835 12.3815 8.81289
637 2 24.9118 10.6849 7.14426
638 3 26.7835 12.7051 7.08559
639 3 26.747 10.646 8.8664
640 1 24.8192 12.4649 8.86586
641 4 0.0863528 14.2756 7.09724
642 2 1.83199 15.9741 7.07325
643 4 1.81204 14.2888 8.83286
644 3 28.5302 16.0923 8.90937
645 2 3.55897 14.2841 6.90037
646 1 5.31585 15.9707 7.20836
647 4 5.14862 14.1673 8.81078
648 4 3.51164 16.0028 8.89468
649 1 7.14185 14.196 6.98937
650 4 8.88486 16.0697 7.00312
651 4 9.04641 14.3508 8.78516
652 4 7.15241 15.8232 8.86096
653 1 10.6614 14.1561 7.0744
654 1 12.5552 16.1343 7.01449
655 1 12.4596 14.2763 8.71177
656 1 10.8532 16.0899 8.79733
657 4 14.3051 14.402 7.05157
658 1 16.0061 16.1626 6.8619
659 2 16.0575 14.3735 8.83759
660 2 14.2494 16.0371 8.701
661 1 17.8563 14.3347 7.21331
662 3 19.7769 16.1447 7.01634
663 4 19.5955 14.189 8.92451
664 2 18.0141 16.0627 8.99143
665 3 21.2717 14.2983 7.24605
666 4 23.2515 16.1841 6.99843
667 4 23.076 14.134 8.74343
668 2 21.3955 16.1193 8.85308
669 4 25.0113 14.3842 7.10054
670 1 26.8115 15.9129 7.13635
671 2 26.7977 14.1892 8.92562
672 4 24.8266 16.0521 8.90762
673 3 28.478 17.7134 7.25065
674 3 1.61184 19.4619 7.23002
675 2 1.66647 17.7335 9.03162
676 4 28.3957 19.4199 8.94916
677 3 3.65103 17.8294 7.03559
678 1 5.15839 19.7388 7.28293
679 2 5.37763 17.7273 8.88891
680 1 3.36129 19.4899 9.17393
681 3 7.03295 17.8082 7.2159
682 3 8.79107 19.6577 7.1799
683 1 8.88261 17.9296 8.9609
684 1 6.98823 19.7049 8.93994
685 2 10.5612 17.8324 6.89748
686 2 12.439 19.6111 7.0967
687 1 12.4575 17.7918 8.75955
688 2 10.614 19.5249 8.90448
689 2 14.1828 17.899 7.08598
690 2 16.1633 19.8244 7.28315
691 3 15.9843 17.9374 8.72064
692 1 14.1312 19.7126 8.9644
693 4 17.9215 17.8015 7.24654
694 4 19.6776 19.724 6.87608
695 4 19.824 17.9843 8.92452
696 2 17.7061 19.7046 8.83546
697 4 21.3602 17.9227 7.11704
698 2 23.2225 19.6846 7.1096
699 4 23.1726 17.8381 8.91496
700 2 21.4447 19.6882 8.85375
701 4 25.0914 17.9225 7.00225
702 1 26.7946 19.512 7.16503
703 3 26.6317 17.78 8.89698
704 1 24.9799 19.5805 8.96951
705 4 0.00426364 21.2324 7.21794
706 1 1.85076 23.1826 7.07581
707 1 1.74379 21.2582 8.96071
708 4 -0.0179656 23.2006 8.98111
709 3 3.43364 21.2763 7.18133
710 2 5.10198 23.0206 7.14267
711 3 5.16187 21.3803 8.92221
712 1 3.46521 23.2325 8.9214
713 2 7.03634 21.4648 7.02064
714 3 8.86986 23.3512 7.10983
715 4 8.80914 21.5378 8.84796
716 2 7.12905 23.3492 8.81331
717 1 10.589 21.4912 7.06383
718 1 12.4812 23.326 7.00023
719 2 12.2598 21.4825 8.71372
720 1 10.6235 23.1865 9.01954
721 4 14.3129 21.3774 7.25609
722 4 15.9541 23.1891 7.15922
723 1 16.0707 21.5434 8.97972
724 2 14.1317 23.2694 9.01215
725 3 17.7985 21.5383 7.15157
726 3 19.7946 23.2703 6.99826
727 3 19.6671 21.373 8.64712
728 2 17.8639 23.2361 8.77779
729 1 21.4848 21.2861 7.08599
730 3 23.0026 23.1451 7.0801
731 4 23.1179 21.4455 8.85782
732 4 21.3385 23.199 8.91025
733 3 25.008 21.4975 7.1297
734 2 26.8792 23.161 7.29335
735 2 26.6861 21.2379 8.85153
736 2 25.0555 23.199 8.89474
737 4 0.0126395 24.7629 7.17127
738 1 1.84911 26.608 7.19602
739 3 1.92406 25.1133 9.04284
740 2 -0.0272993 26.7338 9.01243
741 4 3.65385 24.9201 7.06435
742 4 5.3075 26.8729 7.17868
743 4 5.32073 24.9138 8.73639
744 3 3.5439 26.8025 8.86815
745 1 7.07226 25.0414 7.07291
746 3 8.80511 26.7189 7.07459
747 1 8.94126 25.0927 8.87518
748 2 7.1277 26.8359 8.94899
749 3 10.5681 24.9931 6.9838
750 2 12.4941 26.7737 7.18724
751 3 12.4393 24.9764 8.89643
752 1 10.7782 26.8215 8.78712
753 3 14.3068 25.0404 7.13563
754 4 15.8847 26.8421 7.24105
755 2 15.9067 24.9859 8.96559
756 2 14.1696 26.7739 8.97839
757 1 17.6996 25.0223 7.09761
758 4 19.5285 26.7238 7.08665
759 2 19.5685 25.0696 8.89003
760 3 17.7237 26.835 8.91283
761 1 21.4631 25.145 7.11575
762 2 23.0994 26.7723 7.21069
763 1 23.2026 25.0697 8.86312
764 2 21.2902 26.8271 8.84856
765 2 24.9638 24.7923 7.1885
766 4 26.861 26.6868 7.10859
767 2 26.705 24.9095 9.00296
768 3 25.0011 26.8248 8.88502
769 3 -0.0442602 -0.0359423 10.6584
770 2 1.81694 1.64296 10.5896
771 3 1.86971 -0.0404251 12.414
772 4 0.0169609 1.75444 12.4195
773 3 3.75362 28.493 10.7382
774 3 5.32489 1.72652 10.6978
775 4 5.39378 -0.0427291 12.447
776 3 3.59643 1.64924 12.3618
777 1 7.08595 -0.0135124 10.6356
778 1 8.91288 1.72356 10.622
779 4 8.86918 -0.00814653 12.4167
780 4 7.06122 1.84925 12.5825
781 1 10.6851 0.000622934 10.9231
782 2 12.4189 1.74959 10.8111
783 3 12.4712 28.5394 12.5015
784 4 10.5864 1.79859 12.5372
785 1 14.247 0.0634861 10.7812
786 2 15.948 1.86704 10.7818
787 2 16.0166 0.098554 12.4661
788 3 14.1564 1.75625 12.4722
789 3 17.8879 0.0589287 10.6797
790 4 19.497 1.86524 10.5468
791 2 19.4869 28.5031 12.5312
792 1 17.822 1.70177 12.4995
793 2 21.1846 0.024806 10.664
794 3 23.1648 1.70764 10.601
795 1 23.062 0.0235823 12.3585
796 3 21.2572 1.69466 12.5609
797 4 25.1437 0.0117101 10.5133
798 2 26.7978 1.65185 10.6179
799 3 26.793 0.128795 12.4978
800 2 24.8482 1.7734 12.4656
801 2 28.4781 3.41225 10.57
802 4 1.75105 5.05217 10.614
803 3 1.73136 3.39572 12.4236
804 1 0.0301936 5.13096 12.3571
805 1 3.45739 3.35485 10.4227
806 4 5.34642 5.26539 10.3761
807 2 5.31325 3.56784 12.1688
808 4 3.44293 5.15701 12.4294
809 3 7.12751 3.45776 10.5998
810 3 8.94544 5.2637 10.6089
811 2 8.87756 3.63457 12.4186
812 3 7.13906 5.5318 12.2979
813 4 10.7994 3.66034 10.6486
814 1 12.3937 5.31786 10.6538
815 3 12.4672 3.52842 12.4592
816 2 10.5437 5.3693 12.3575
817 3 14.1563 3.41195 10.8061
818 2 15.99 5.39341 10.592
819 4 15.9772 3.59824 12.5232
820 2 14.2999 5.43291 12.4658
821 3 17.6956 3.6165 10.7214
822 4 19.5566 5.14558 10.6442
823 3 19.4852 3.52915 12.4928
824 1 17.8701 5.32737 12.5253
825 4 21.3208 3.34151 10.7647
826 4 23.2438 5.15559 10.5778
827 1 23.1221 3.4845 12.3475
828 2 21.3318 5.06614 12.3487
829 4 25.0612 3.59812 10.6523
830 1 26.9605 5.26228 10.5763
831 3 26.6867 3.40025 12.3115
832 3 25.0669 5.26853 12.4391
833 1 28.5276 7.0643 10.801
834 3 1.77102 9.09443 10.5616
835 4 1.76722 7.11087 12.3324
836 2 28.4808 8.95689 12.3259
837 1 3.40335 7.01554 10.689
838 4 5.35273 8.87855 10.6745
839 1 5.12145 6.9452 12.4079
840 4 3.5664 8.65392 12.5037
841 3 7.08283 7.04162 10.4478
842 3 8.83899 8.91797 10.6663
843 1 8.9386 7.13876 12.4176
844 2 7.13298 8.83359 12.4499
845 2 10.7644 7.00167 10.606
846 3 12.5032 8.89048 10.5907
847 4 12.4579 7.18008 12.4337
848 3 10.665 8.89358 12.715
849 2 14.2008 7.13988 10.6808
850 3 16.0852 8.95221 10.659
851 3 16.0937 7.00151 12.5745
852 4 14.509 8.98878 12.6723
853 3 17.8631 7.18441 10.6721
854 2 19.5061 8.95787 10.5605
855 1 19.6193 7.09329 12.3043
856 4 17.8179 8.73744 12.3438
857 2 21.609 7.07149 10.6888
858 2 23.3467 8.84986 10.4721
859 1 23.3954 7.09642 12.2632
860 2 21.4057 8.85969 12.2753
861 3 25.1339 7.0393 10.7059
862 1 26.8865 8.91779 10.6236
863 2 26.7529 7.10007 12.5235
864 3 25.1785 8.93395 12.3005
865 4 -0.00500182 10.6411 10.66
866 1 1.81758 12.3337 10.7104
867 1 1.87963 10.4848 12.4066
868 3 -0.0222052 12.4712 12.3937
869 1 3.59768 10.543 10.5681
870 3 5.30577 12.338 10.5559
871 1 5.18089 10.6414 12.3672
872 4 3.61491 12.364 12.3977
873 2 7.15583 10.6678 10.7945
874 4 8.93106 12.2536 10.6005
875 4 9.00453 10.7186 12.5864
876 2 7.11376 12.4659 12.4852
877 2 10.6902 10.7177 10.8281
878 3 12.4791 12.667 10.6054
879 1 12.5794 10.5945 12.231
880 4 10.6726 12.4606 12.2728
881 2 14.3542 10.61 10.6712
882 3 16.0715 12.322 10.4593
883 4 16.2016 10.7665 12.4746
884 1 14.4195 12.4282 12.3662
885 3 17.7746 10.7137 10.537
886 4 19.608 12.4084 10.7687
887 2 19.7128 10.5709 12.3355
888 3 17.8421 12.5712 12.3783
889 4 21.5082 10.461 10.6539
890 4 23.2355 12.3754 10.6324
891 1 23.2544 10.6111 12.4201
892 2 21.5348 12.4039 12.5237
893 3 24.8601 10.6361 10.5157
894 1 26.834 12.3606 10.6807
895 1 26.6519 10.7493 12.4851
896 2 25.0853 12.4657 12.319
897 1 0.10641 14.0433 10.5703
898 3 1.7581 15.9105 10.7126
899 1 1.70027 14.1506 12.4332
900 3 28.469 15.8545 12.393
901 3 3.54379 14.1343 10.6861
902 1 5.45186 16.084 10.6519
903 2 5.50224 14.2506 12.3128
904 4 3.53433 15.9904 12.6031
905 4 7.14292 14.1681 10.4777
906 1 9.00304 15.9642 10.6125
907 4 8.97741 14.253 12.3289
908 1 7.25903 16.0958 12.3053
909 2 10.5434 14.0653 10.4789
910 1 12.1355 16.0743 10.8514
911 4 12.6201 14.3238 12.4904
912 4 10.5241 16.0115 12.5241
913 2 14.2858 14.2971 10.4706
914 4 16.0699 16.162 10.6522
915 4 16.093 14.3404 12.5014
916 4 14.2269 16.1104 12.3493
917 2 17.7419 14.2181 10.7058
918 2 19.7673 16.133 10.6733
919 1 19.7496 14.2434 12.356
920 1 17.8961 16.1334 12.3237
921 2 21.409 14.2285 10.5742
922 4 23.1886 15.9125 10.5255
923 1 23.2102 14.0826 12.4556
924 2 21.5333 16.1403 12.593
925 4 24.9497 14.1722 10.5094
926 2 26.6276 16.1054 10.6931
927 2 26.7274 14.3023 12.2157
928 2 24.7315 15.9275 12.356
929 2 0.0133775 17.7626 10.858
930 3 1.64286 19.5214 10.7502
931 3 1.75816 17.6607 12.4551
932 3 0.0161259 19.4239 12.6087
933 4 3.50495 17.8274 10.7643
934 2 5.39974 19.5397 10.6232
935 1 5.38536 17.7947 12.4597
936 1 3.57957 19.4862 12.3976
937 3 7.22291 17.9342 10.6166
938 2 9.05085 19.6235 10.6203
939 4 8.95255 17.8729 12.4732
940 1 7.37814 19.5335 12.5131
941 4 10.5823 17.7678 10.6633
942 4 12.3959 19.7459 10.5946
943 3 12.3266 17.8963 12.3717
944 2 10.5821 19.8565 12.664
945 2 14.1586 17.9366 10.6809
946 3 15.9153 19.6111 10.5591
947 3 15.9368 17.998 12.4648
948 1 14.1554 19.5982 12.4159
949 2 17.846 17.9802 10.5714
950 3 19.7065 19.5973 10.6681
951 4 19.567 17.8512 12.6139
952 3 17.7336 19.5712 12.4244
953 1 21.4985 17.7737 10.7934
954 1 23.2549 19.6069 10.5681
955 2 23.1445 17.8475 12.3407
956 4 21.5052 19.7089 12.3647
957 1 24.8251 17.8996 10.6934
958 4 26.8437 19.5204 10.7221
959 4 26.7425 17.7734 12.476
960 4 25.1375 19.6752 12.6456
961 4 28.5383 21.4029 10.6758
962 1 1.62244 23.2389 10.6802
963 4 1.58656 21.4549 12.4735
964 3 28.4583 23.2552 12.4892
965 3 3.44803 21.385 10.7578
966 3 5.35775 23.2429 10.789
967 4 5.3889 21.4709 12.4284
968 1 3.42752 23.3135 12.6202
969 2 7.13404 21.347 10.7319
970 3 8.7183 23.2061 10.5757
971 2 8.76507 21.601 12.5522
972 1 7.0648 23.3525 12.6036
973 3 10.6379 21.4646 10.8264
974 3 12.38 23.2697 10.7057
975 1 12.2983 21.5439 12.5944
976 1 10.5587 23.182 12.5113
977 1 14.2251 21.4906 10.6466
978 1 16.0797 23.3159 10.7066
979 2 15.9905 21.306 12.4196
980 2 14.2452 23.1584 12.622
981 1 17.8603 21.2723 10.584
982 1 19.7359 23.2489 10.6257
983 1 19.6606 21.4518 12.3764
984 2 17.8205 23.2062 12.4673
985 3 21.488 21.4297 10.7033
986 4 23.4857 23.167 10.6446
987 3 23.2397 21.5425 12.3557
988 2 21.2805 23.3046 12.3645
989 2 24.991 21.3754 10.7362
990 4 26.7611 23.1727 10.5754
991 3 26.7814 21.4055 12.3356
992 4 25.1715 23.2916 12.4836
993 2 28.4646 25.0818 10.696
994 3 1.74485 26.7556 10.8435
995 1 1.58903 25.1298 12.5264