ITEM: TIMESTEP
2000
ITEM: NUMBER OF ATOMS
500
ITEM: BOX BOUNDS pp pp pp
-8.2020415778677247e-02 1.7882020415778577e+01
-8.2020415778677247e-02 1.7882020415778577e+01
-8.2020415778677247e-02 1.7882020415778577e+01
ITEM: ATOMS id type x y z
1 4 17.6927 17.7315 17.7456
2 2 1.35452 1.50707 17.7612
3 4 1.56969 17.8294 1.76314
4 2 17.7313 1.37288 1.64095
5 2 3.53904 0.136679 -0.0498074
6 3 5.13594 1.90409 17.6235
7 3 5.39974 0.0518861 1.68316
8 1 3.42966 1.66251 1.35672
9 1 7.4532 0.0422559 0.0862772
10 4 8.36408 2.25303 17.6813
11 2 8.89996 -0.0255975 1.56046
12 4 6.96035 1.77998 1.56578
13 4 10.7779 -0.0700806 0.0917093
14 1 12.3635 1.83192 0.247266
15 3 12.4615 17.8135 1.61963
16 1 10.6773 1.45213 2.12547
17 4 14.1983 -0.0167339 17.8495
18 3 16.0642 1.55556 17.8225
19 1 15.9016 17.7701 1.83169
20 2 14.1988 1.57869 1.58082
21 3 0.435847 3.35965 -0.072478
22 3 1.85357 5.36097 17.8313
23 2 1.84144 3.35259 1.71847
24 2 0.252356 5.64136 1.69544
25 3 3.43027 3.49268 17.598
26 3 4.78699 5.38541 17.8772
27 2 4.93332 3.37025 1.7977
28 4 3.26931 5.18033 1.90673
29 2 6.80008 3.75033 -0.00144054
30 1 8.68537 5.01145 17.8639
31 2 8.64793 3.67701 1.86999
32 1 6.63634 5.24606 1.51173
33 2 10.4267 2.98892 0.814734
34 4 12.8134 5.09581 0.157687
35 4 12.3125 3.46234 1.80202
36 1 10.5441 5.22291 1.2846
37 2 14.8169 3.81216 0.0765349
38 3 16.4922 5.36353 17.7688
39 4 16.7933 3.57257 1.72984
40 2 14.4367 5.14793 2.0452
41 4 0.195464 7.2314 17.8638
42 1 1.66149 9.05143 17.5332
43 3 1.73268 7.39508 1.89536
44 4 0.0299735 9.18374 1.85922
45 1 3.48683 7.49794 0.114366
46 2 5.02316 9.09201 -0.0191628
47 3 4.86295 6.82358 2.17543
48 2 3.16416 9.18665 1.66391
49 1 6.62975 7.56398 0.419315
50 3 9.07556 8.83808 0.337501
51 4 8.68564 6.92232 1.77185
52 2 7.04572 8.97988 2.15736
53 1 10.8131 7.14645 17.7693
54 1 12.4967 9.06351 17.8636
55 4 12.4136 6.79142 1.51673
56 4 10.973 9.16304 1.62437
57 3 14.2085 7.08692 17.765
58 3 16.3455 9.33476 17.829
59 3 16.2964 7.34848 1.59844
60 2 14.0382 8.99632 1.58585
61 1 0.230354 10.9737 17.3051
62 3 1.54576 12.9782 17.761
63 3 1.53962 11.0757 1.75416
64 4 17.7745 12.6697 1.561
65 2 3.68769 11.0155 17.7347
66 3 5.57278 12.617 17.5091
67 4 4.8835 10.6165 1.9688
68 1 3.54885 12.8284 1.07635
69 1 7.0158 10.8068 0.444257
70 2 8.86732 12.1196 -0.0610856
71 4 8.90985 10.943 1.80973
72 1 6.70094 12.5712 1.94849
73 1 10.9285 10.7565 -0.0232433
74 2 12.466 12.5478 17.7927
75 2 12.4791 10.9167 1.72797
76 3 10.704 12.6004 1.77657
77 1 13.9173 10.8153 0.214174
78 1 16.0993 12.4669 0.047709
79 4 16.2133 10.7817 1.77776
80 3 14.1675 12.707 1.72219
81 4 17.6274 14.4831 17.6637
82 2 1.86168 15.8094 -0.0147361
83 1 1.6532 14.736 1.69384
84 3 17.6018 16.2171 1.57971
85 2 3.74185 14.1738 17.5786
86 3 5.89031 16.1739 17.8176
87 4 5.37741 14.8432 1.44741
88 1 3.52762 16.293 1.20986
89 4 7.42808 14.0987 0.014682
90 1 8.99793 16.1165 17.76
91 1 8.92041 14.3547 1.81523
92 1 7.28672 16.2521 1.85258
93 3 10.5262 14.4312 -0.0726226
94 3 12.4288 16.0344 17.715
95 4 12.3745 14.1579 1.58072
96 1 10.5623 16.3252 1.805
97 4 14.1178 14.2792 17.8568
98 2 15.7159 16.1437 17.7746
99 2 16.0123 14.4019 1.46512
100 2 14.1643 15.9515 1.61126
101 3 17.8292 17.6465 3.64578
102 3 1.67738 1.48583 3.49693
103 1 1.78283 17.6873 5.57141
104 3 17.841 1.33896 5.29419
105 4 3.65494 0.261774 3.28702
106 2 5.4199 1.66196 3.65355
107 3 5.41559 0.0561469 5.28741
108 3 3.52032 1.55328 5.41764
109 2 7.39346 17.7716 3.51403
110 2 9.03389 1.53729 3.56124
111 2 8.84816 -0.045506 5.45258
112 1 7.43038 1.77252 4.96827
113 2 10.5176 17.7129 3.69384
114 2 12.3583 1.93496 3.55696
115 4 12.5143 0.0470507 5.31488
116 2 10.7032 1.66281 5.29192
117 2 14.0756 17.8045 3.43948
118 1 16.381 1.65999 3.38315
119 4 15.8779 17.6413 5.28016
120 1 14.6516 1.76722 5.02821
121 2 0.0082605 3.42194 3.71475
122 2 1.60492 5.14054 3.70791
123 3 1.73283 3.21188 5.46347
124 1 17.8303 5.05816 5.49611
125 3 3.58208 3.44843 3.57582
126 4 5.05522 5.34137 3.78736
127 4 5.07239 3.16199 5.46241
128 4 3.37051 4.96992 5.55807
129 1 6.84707 3.9296 3.42927
130 4 8.84739 5.3443 3.51533
131 2 9.04955 3.78422 5.01103
132 4 7.12659 5.24244 5.28862
133 3 10.7218 3.76418 3.43892
134 3 12.6282 5.32336 3.59898
135 4 12.6113 3.56181 5.43455
136 4 10.8139 5.48025 5.26789
137 1 14.6601 3.45339 3.24728
138 3 16.345 5.1543 3.48128
139 1 16.3059 3.63674 5.23583
140 3 14.38 5.298 5.22035
141 4 17.7785 6.97716 3.51766
142 4 1.61521 8.90198 3.61542
143 3 1.08643 7.14158 5.32368
144 4 17.7665 9.21736 5.10313
145 1 3.20356 6.91618 3.99781
146 4 5.02739 8.74844 3.48444
147 3 5.53615 7.07688 5.35243
148 2 3.27365 8.97786 5.42967
149 3 6.86502 7.03618 3.43837
150 1 8.80078 8.9306 3.20333
151 3 8.76563 7.30244 5.32009
152 4 7.09418 8.82552 4.98489
153 2 10.586 7.01178 3.17972
154 2 12.5348 8.91977 3.38029
155 2 12.4793 7.22022 4.9938
156 4 10.7024 8.84617 5.26256
157 4 14.2223 7.10843 3.4446
158 4 16.1091 8.72237 3.44641
159 3 16.1294 6.93859 5.37191
160 3 14.5006 8.96064 5.16034
161 4 17.7532 10.9676 3.44999
162 4 1.7576 12.8303 3.41142
163 2 1.73613 10.5933 5.5122
164 1 0.398786 12.4876 5.2811
165 4 3.2449 10.59 3.62222
166 2 5.21943 12.2701 3.65693
167 1 5.22453 10.6406 5.51192
168 3 3.35201 12.5757 5.15777
169 4 7.19368 11.0129 3.65114
170 2 8.85477 12.5103 3.58591
171 3 8.86721 10.4454 5.2774
172 3 7.13182 12.4739 5.64949
173 2 10.5996 10.4405 3.52886
174 3 12.3992 12.4221 3.60454
175 4 12.398 10.4614 5.32763
176 1 10.4381 12.3279 5.45086
177 1 14.1506 10.7271 3.23957
178 3 16.2004 12.6543 3.47767
179 4 16.1679 10.7995 5.29187
180 4 14.3311 12.7453 5.10926
181 2 0.272398 14.7369 3.45442
182 2 2.30755 16.203 3.47319
183 1 1.86517 14.7669 5.26048
184 4 17.7425 15.9452 5.30542
185 3 3.95628 14.1778 3.21049
186 3 5.10119 16.3319 3.33181
187 3 5.26159 14.1696 5.18924
188 2 3.91299 16.0306 5.42049
189 2 6.81455 14.3607 3.34344
190 4 8.73568 15.9244 3.72174
191 4 8.59981 14.05 5.31056
192 2 7.03585 15.8966 5.63011
193 4 10.6208 14.2152 3.48605
194 2 12.2615 16.0381 3.39447
195 2 12.5167 14.5708 5.29382
196 2 10.6965 16.0405 5.38275
197 2 14.497 14.2875 3.26268
198 1 16.1263 15.6167 3.33912
199 3 16.229 14.3163 5.21889
200 2 14.0975 15.9598 5.17964
201 1 17.8319 17.6563 7.47542
202 1 1.81612 1.31339 7.23758
203 2 1.65393 17.7481 9.05847
204 3 17.8113 1.65652 9.02265
205 2 3.43259 17.5991 7.27048
206 1 5.03937 1.81466 7.44048
207 1 5.39909 17.631 8.82989
208 2 3.50963 1.57955 9.10876
209 3 6.99426 17.8586 7.08353
210 2 8.82793 1.82034 6.98697
211 2 8.97445 17.8049 8.84541
212 1 7.1578 1.84492 8.83682
213 2 10.6813 17.868 7.07285
214 4 12.5698 1.72611 6.96151
215 3 12.387 -0.0170875 9.05303
216 3 10.5957 1.56828 8.79105
217 3 14.2905 0.0746489 6.97778
218 4 16.2068 1.74174 7.25125
219 2 16.1012 17.809 8.83345
220 3 14.3493 1.688 8.95364
221 2 17.8492 3.55328 7.14105
222 1 1.65687 5.15128 7.22763
223 4 1.63619 3.12251 9.0721
224 2 17.7366 5.17326 9.31624
225 1 3.34689 3.37787 7.55559
226 4 5.07567 5.44 7.11349
227 3 5.28479 3.71064 8.81665
228 4 3.58375 5.69622 8.94338
229 3 6.86788 3.69913 6.88698
230 4 9.04037 5.47708 6.88678
231 2 8.97132 3.55119 8.82334
232 2 7.26619 5.60253 8.61171
233 2 10.6505 3.53332 6.90514
234 2 12.6754 5.55355 6.91258
235 2 12.3148 3.41868 8.9327
236 3 10.9816 5.5949 8.64215
237 4 14.1221 3.47282 7.26995
238 3 15.8652 5.17672 7.22755
239 4 16.2074 3.4772 9.0049
240 1 14.1747 5.34734 9.05736
241 3 17.7323 6.85948 7.36041
242 4 1.21619 8.81671 6.90158
243 3 1.72269 7.08499 8.79307
244 3 17.6151 8.92247 8.76175
245 1 3.41139 7.08642 6.76946
246 1 4.90762 9.1 7.14788
247 4 5.50864 7.17437 9.02033
248 1 3.29252 8.9412 8.70537
249 1 6.9834 7.39442 7.02544
250 2 8.83924 8.90197 7.21381
251 4 9.09664 7.17589 8.94544
252 1 7.2648 8.99133 8.98155
253 3 10.7841 7.25179 6.97204
254 2 12.7238 8.89665 7.10509
255 2 12.8464 7.34629 8.92603
256 4 10.7997 8.78824 8.57164
257 2 14.7141 7.17218 7.03217
258 2 16.1901 9.45925 6.99935
259 3 15.7829 7.15019 8.87869
260 3 14.3434 9.08377 8.65695
261 1 0.15807 10.967 7.01496
262 2 1.82572 12.4647 7.32181
263 1 1.55948 10.7362 8.68009
264 3 17.8808 12.4292 9.07501
265 1 3.1736 10.8052 6.91603
266 3 5.37756 12.3128 7.28895
267 3 5.34988 10.6358 8.81204
268 2 3.26984 12.084 9.10084
269 1 7.30722 10.369 7.13702
270 4 8.99467 12.8915 7.55951
271 2 9.04242 10.5295 9.13963
272 1 7.42617 12.1397 9.03305
273 3 10.6387 10.6332 7.14481
274 1 12.6227 12.477 6.81442
275 4 12.4804 10.7089 8.6167
276 3 10.7794 12.4104 8.79538
277 4 14.2661 10.859 6.71449
278 3 16.0567 12.5307 7.01601
279 3 16.1467 10.8068 8.70713
280 1 14.146 12.444 8.83173
281 1 0.00465713 13.9784 6.99213
282 1 1.68591 15.8682 7.26941
283 4 1.69024 14.0523 9.10563
284 3 17.851 15.6409 8.92759
285 4 3.58183 13.744 7.22906
286 1 5.29827 15.9449 6.96073
287 4 5.41524 14.2192 8.70815
288 4 3.48972 15.9833 8.92599
289 3 7.29223 14.3051 7.33856
290 1 8.8796 16.2609 6.9799
291 1 9.01103 14.804 9.00575
292 2 7.29342 16.0525 9.52118
293 4 10.9672 14.3763 7.11469
294 4 12.6025 16.3185 7.22019
295 3 12.6264 14.3124 8.7352
296 2 10.8418 16.0377 8.96122
297 4 14.417 14.2598 6.93442
298 3 15.9227 16.1415 6.89557
299 1 15.871 14.3243 9.05155
300 2 14.5373 15.8505 8.78418
301 2 17.7567 17.7162 10.707
302 1 1.45575 1.17265 10.8178
303 1 2.0461 17.5557 12.7496
304 3 0.0545034 1.50353 12.3924
305 4 3.66168 17.6455 10.6611
306 4 5.41254 1.93546 10.5468
307 2 5.60586 0.00349555 12.0663
308 3 3.61776 1.63115 12.0984
309 1 7.37261 0.098611 10.5449
310 4 8.93879 1.92307 10.7134
311 1 9.18661 0.271626 12.8254
312 4 7.08449 1.94829 12.4595
313 3 10.3413 17.8569 10.6766
314 3 12.499 1.76007 10.6934
315 2 12.7086 0.10816 12.0285
316 2 10.7228 2.08939 12.7169
317 2 14.3309 17.7552 10.3379
318 2 16.099 1.72192 10.7207
319 2 16.0495 17.6344 12.4551
320 4 14.3988 1.76766 12.5902
321 3 0.143595 3.57988 11.1335
322 3 1.65931 5.06882 10.5577
323 4 2.07845 3.48451 12.4373
324 1 17.8726 5.55774 12.3703
325 4 3.74839 3.83496 10.5692
326 4 5.57856 5.58238 10.4332
327 4 5.36425 3.72331 12.561
328 1 3.61545 5.62251 12.5793
329 3 7.29469 3.63168 10.8563
330 4 9.12228 5.15216 10.3752
331 1 9.14721 3.50859 12.4776
332 4 7.3437 5.38949 12.4585
333 1 10.8165 3.565 10.7327
334 2 12.461 5.03858 10.8989
335 4 12.6561 3.27957 12.5048
336 4 10.9617 5.35885 12.7198
337 4 14.4676 3.36704 10.8222
338 2 15.8316 5.48261 10.6631
339 3 16.0625 3.38786 12.417
340 4 14.4756 5.12008 12.676
341 1 17.7878 7.10627 10.5671
342 1 1.56181 9.32295 10.6614
343 2 1.22332 7.41618 12.1938
344 1 17.4825 8.96438 12.5264
345 3 3.44145 7.24718 10.777
346 3 4.99495 8.85733 10.5837
347 3 5.30406 7.13624 12.2792
348 4 3.65925 8.9169 12.6967
349 4 7.34923 7.12085 10.669
350 1 9.16328 8.77071 10.723
351 1 9.19772 6.8471 12.1307
352 1 7.2709 9.01204 12.3628
353 1 11.3698 6.85592 10.7674
354 1 12.6207 8.92833 10.4868
355 3 12.7539 6.89852 12.8611
356 1 10.9946 8.41425 12.345
357 1 14.1891 7.01507 10.751
358 4 15.8123 8.84796 10.4606
359 4 16.101 6.99151 12.8076
360 1 14.1383 8.91192 12.515
361 2 17.4968 10.6491 10.9195
362 4 1.41687 12.1385 10.6919
363 3 1.75076 10.6668 12.7415
364 3 17.8103 12.5748 12.52
365 3 3.39774 10.6316 10.8734
366 4 5.03704 12.1308 10.4342
367 1 5.40794 10.8024 12.4665
368 1 3.66389 12.7382 12.4849
369 1 7.422 10.7406 10.9254
370 4 9.36029 12.2912 10.8816
371 1 9.09045 10.2334 12.7296
372 1 7.59197 12.2992 12.705
373 2 10.9006 10.2643 10.4885
374 1 12.4235 12.2231 10.7264
375 2 12.2763 10.2811 12.699
376 4 11.0633 12.0555 12.6138
377 3 14.308 10.6187 10.428
378 1 15.9155 12.4181 10.9001
379 1 15.8414 10.682 12.7243
380 2 14.1118 12.176 12.4116
381 1 17.8465 14.2155 10.8703
382 2 1.62154 15.9007 10.7905
383 2 1.42896 14.2088 12.4931
384 3 17.8053 15.9295 12.7259
385 2 3.34579 13.868 10.7125
386 2 5.13845 15.7011 10.9852
387 1 5.80384 14.1455 12.3325
388 1 3.52515 15.5643 12.5265
389 1 7.42856 13.9409 10.6531
390 3 9.10451 16.0217 11.1343
391 4 9.41893 14.1959 12.651
392 4 7.06138 16.4253 12.3695
393 1 10.9128 14.3545 10.6071
394 2 12.294 16.1428 10.58
395 2 12.3705 13.956 12.1688
396 4 10.8715 16.4474 12.4601
397 3 14.1334 14.052 10.5761
398 1 16.0029 16.0852 10.7168
399 3 15.4679 14.3222 12.4707
400 3 13.733 15.9435 12.2808
401 4 -0.0689734 17.7764 14.3308
402 4 1.64055 1.94447 14.1892
403 1 1.53737 17.2733 16.348
404 4 17.7457 1.65813 15.7869
405 2 3.66016 17.281 14.0114
406 4 5.28068 1.81208 13.8009
407 4 5.38157 0.103016 16.0352
408 3 3.24542 1.73775 15.7957
409 2 7.37223 0.149535 14.2782
410 2 8.83954 1.86338 14.3122
411 2 8.88072 0.439089 16.2956
412 3 6.73185 2.03211 16.0321
413 1 10.5546 0.0934577 14.9063
414 1 12.2202 1.76475 14.3063
415 3 12.4806 0.0192371 16.1135
416 1 10.6064 2.40072 16.3763
417 4 14.1117 -0.0508935 14.2564
418 2 16.0161 1.41686 14.2956
419 2 15.8636 -0.0465494 16.0116
420 4 14.2291 1.81236 16.0482
421 4 17.5053 3.16227 14.1008
422 3 1.69922 5.29988 14.1619
423 2 1.46617 3.63998 15.8169
424 1 0.0698042 5.14706 15.9864
425 3 3.59199 3.58065 13.9759
426 1 5.0757 5.57659 14.3924
427 2 5.27635 3.66232 16.0274
428 2 3.48594 5.39492 15.7654
429 3 7.15922 3.79736 14.1891
430 4 8.94771 5.45646 14.3948
431 2 8.89044 3.89599 16.0142
432 1 6.9818 5.40489 16.1662
433 3 10.7272 3.84373 14.3935
434 3 12.5998 5.18062 14.6255
435 2 12.6942 3.28059 16.471
436 3 10.8277 4.97128 16.5861
437 2 14.3971 3.39575 14.5005
438 3 16.0456 5.1904 14.2661
439 3 16.4409 3.46816 16.3278
440 1 14.5366 4.85011 16.2431
441 1 17.84 6.99818 14.139
442 1 1.51557 8.77599 14.549
443 4 1.94393 7.01454 16.0572
444 4 17.5325 8.85397 15.8138
445 2 3.24923 7.04317 14.0198
446 4 5.10716 9.09653 14.4174
447 3 5.25195 7.22909 16.2997
448 2 3.3388 8.91601 16.2205
449 1 6.7918 6.82632 14.1476
450 4 8.52043 8.58119 14.3186
451 3 8.84726 6.91986 16.2429
452 2 7.4111 9.15193 16.5679
453 3 10.7584 7.25616 14.4982
454 4 12.6032 8.75521 14.4631
455 3 12.6716 6.80548 16.1102
456 1 10.758 8.85231 16.3266
457 4 14.4161 6.88913 14.4844
458 2 15.841 8.97481 14.0771
459 3 16.1351 7.12045 16.2772
460 3 14.1675 8.86966 16.2071
461 3 -0.0802583 10.6892 14.4395
462 4 1.84348 12.4801 14.0384
463 2 1.79144 10.5954 15.8167
464 4 17.6697 12.7708 15.7685
465 2 3.64893 10.992 14.3113
466 1 5.56919 12.4282 14.0892
467 4 5.37089 10.538 16.2039
468 1 3.41229 12.6285 16.0103
469 2 7.12166 10.4233 14.6389
470 4 9.36056 12.4674 14.3206
471 1 8.86148 10.6067 16.1489
472 1 7.41044 12.4217 16.0309
473 2 10.7197 10.4704 14.412
474 1 12.5755 12.3119 14.1254
475 1 12.3076 10.9339 16.3095
476 3 10.716 12.7785 16.1878
477 2 14.0324 10.5881 14.298
478 3 15.8114 12.585 14.2383
479 4 15.806 10.6422 15.9078
480 3 14.1097 12.2875 16.2474
481 3 17.5417 14.3378 14.1531
482 2 1.60093 16.1022 14.5061
483 1 1.97508 14.5916 15.8649
484 4 17.4458 15.8689 15.9659
485 4 4.08877 14.2717 14.5598
486 3 5.43155 15.9858 14.0354
487 3 5.8485 14.4295 16.1473
488 4 3.86166 16.1726 16.4652
489 1 7.44756 14.1259 14.0801
490 1 9.32224 16.0636 14.1476
491 1 8.92222 14.6629 15.9936
492 4 7.2736 16.3901 15.9254
493 1 11.0889 14.5724 14.3036
494 3 12.3676 16.4513 14.3308
495 2 12.6593 14.4295 16.1103
496 2 10.473 16.0504 15.9167
497 3 13.9106 14.3858 14.1552
498 2 15.7527 16.1635 14.2291
499 3 15.7013 14.136 15.9465
500 1 14.1552 16.0972 15.8499
ITEM: TIMESTEP
2500
ITEM: NUMBER OF ATOMS
500
ITEM: BOX BOUNDS pp pp pp
-6.6668944963284460e-02 1.7866668944963202e+01
-6.6668944963284460e-02 1.7866668944963202e+01
-6.6668944963284460e-02 1.7866668944963202e+01
ITEM: ATOMS id type x y z
1 4 -0.0631749 17.8113 17.6095
2 2 1.61997 1.74008 17.6164
3 4 1.56364 -0.101586 1.72629
4 2 17.7651 1.48728 1.60597
5 2 3.52115 0.347558 17.7798
6 3 5.25117 2.02501 17.6128
7 3 5.36568 0.268275 1.64136
8 1 3.48258 1.87835 1.35118
9 1 7.15562 0.433714 17.5954
10 1 9.0015 2.14168 -0.0489581
11 2 8.96245 0.413238 1.38778
12 4 7.12274 1.95844 1.78746
13 4 10.5052 0.00182909 17.468
14 1 12.4613 1.90205 -0.108261
15 3 12.2804 17.5128 1.23509
16 1 10.6349 1.86171 1.79545
17 4 14.2584 17.7032 0.196073
18 4 16.0757 1.41638 17.6835
19 1 16.1295 17.8964 1.85752
20 2 14.0286 1.83983 1.09589
21 3 0.0139531 3.4631 0.00395094
22 3 1.87062 5.38371 17.712
23 2 1.55219 3.29451 1.4927
24 2 0.211961 5.57579 1.51721
25 3 3.48978 3.65109 17.5438
26 3 5.16391 5.27694 17.6644
27 2 5.19658 3.45548 1.60087
28 4 3.53206 5.06612 1.83241
29 2 7.12538 3.39004 -0.153416
30 1 8.98637 4.96919 -0.0988586
31 2 8.90593 3.71073 1.6771
32 1 6.70449 5.18582 1.38588
33 2 10.8401 3.47395 0.147651
34 4 12.4903 5.20739 17.8225
35 3 12.401 3.83998 1.89502
36 1 10.3976 5.25413 1.46084
37 2 14.3751 3.84665 17.6775
38 3 16.3364 5.23334 0.0237975
39 2 16.0468 3.20411 1.33878
40 2 14.4934 5.05952 2.0967
41 2 17.8778 6.87748 17.4119
42 1 1.88807 9.00311 17.7755
43 3 1.87277 7.2561 1.90994
44 4 -0.0650519 8.65064 1.82678
45 1 3.49309 7.3529 -0.161657
46 2 5.28013 8.76092 0.14026
47 3 5.15158 6.93692 1.6399
48 3 3.41395 9.14738 1.90522
49 1 7.01353 7.3481 0.0303674
50 3 9.39 8.77573 0.224938
51 4 8.68569 7.07903 1.84553
52 2 6.96683 8.79994 1.71002
53 1 11.035 7.13354 0.298013
54 1 12.4123 8.86206 0.0394246
55 4 12.6124 6.64256 1.83155
56 4 10.5091 8.95037 2.21463
57 3 14.4392 6.73346 0.230447
58 3 16.2599 9.00341 17.7958
59 2 16.0793 6.9385 1.58005
60 2 14.0192 8.9087 1.62596
61 1 0.192453 10.5725 17.6435
62 3 1.71084 12.6432 0.014549
63 3 1.54345 10.6616 1.70235
64 4 0.060468 12.697 1.75881
65 2 3.55119 10.5835 0.0992524
66 1 5.51402 12.5396 17.7228
67 4 5.34643 10.5855 1.63073
68 1 3.79235 12.442 1.44738
69 1 7.24654 10.817 17.9096
70 2 8.85518 12.4974 17.8634
71 4 8.91783 10.4418 2.01034
72 1 7.37967 12.4674 1.69168
73 4 10.3313 10.9712 0.101866
74 2 11.8844 12.4495 17.7043
75 2 12.4752 10.6764 1.77331
76 3 10.4241 12.7029 1.71624
77 1 13.8964 10.9214 0.118046
78 1 15.8851 12.0186 0.205782
79 4 16.2089 10.2118 1.83202
80 3 13.7778 12.6181 1.9694
81 4 0.0454746 14.3922 0.0744011
82 2 1.85379 16.1538 17.679
83 4 1.7693 14.4003 1.73398
84 3 17.787 16.292 1.6928
85 2 3.83374 14.1607 0.053107
86 3 5.62233 16.4063 -0.0689295
87 4 5.85931 14.4103 1.70872
88 1 3.77082 16.3637 1.36278
89 4 7.19167 14.3729 17.7423
90 1 8.72847 16.2381 17.4552
91 1 8.56407 14.4965 1.71731
92 1 7.5692 16.6779 1.38801
93 3 10.2198 14.3822 17.7107
94 4 12.0245 15.8326 17.6734
95 2 12.0666 14.3092 1.6272
96 1 9.89681 16.3596 1.71034
97 4 13.8645 13.8492 -0.0162361
98 4 16.0732 15.9708 0.28309
99 2 15.8943 13.994 1.59132
100 4 13.8631 15.767 1.38421
101 3 17.8556 17.418 3.7513
102 3 1.72853 1.70016 3.31676
103 1 1.91533 17.5131 5.18069
104 3 -0.0200726 1.6532 4.96043
105 4 3.8625 0.196598 3.42215
106 2 5.44967 1.95881 3.58306
107 3 5.41092 17.7478 5.25457
108 3 3.51219 1.85626 5.27772
109 2 7.26396 0.261035 3.17171
110 2 8.89963 2.0352 3.57057
111 2 8.79694 -0.013551 5.53131
112 4 7.17202 1.70963 5.45074
113 2 10.4759 0.16624 3.61175
114 2 12.5517 1.8002 3.16218
115 4 12.5753 0.142541 5.25183
116 2 10.6319 1.99541 5.55608
117 2 14.3701 -0.171048 3.14394
118 2 15.9233 1.60276 3.36452
119 4 15.9777 17.8845 5.41963
120 2 14.7397 2.03126 5.02281
121 2 17.6576 3.97706 3.57304
122 3 1.65681 5.48688 3.73302
123 3 1.43974 3.4733 5.26368
124 1 17.6291 5.15861 5.50657
125 3 3.48223 3.13911 3.47709
126 4 5.06433 5.44549 3.52808
127 4 5.33447 3.80373 5.30753
128 2 3.32414 5.21093 5.50998
129 1 6.8664 3.83032 3.5346
130 4 8.65819 5.35182 3.6497
131 2 8.753 3.68539 5.46016
132 4 7.1541 5.31335 5.37626
133 3 10.7114 3.76976 3.56278
134 4 12.6147 5.19421 3.87889
135 4 12.4903 3.46003 5.43949
136 4 10.8598 5.249 5.43472
137 1 14.2615 3.09472 3.12513
138 3 16.2214 5.27499 3.13319
139 1 16.0978 3.42186 4.84441
140 2 14.4057 5.18311 5.44425
141 4 17.8644 6.97428 3.39688
142 3 1.66315 8.63357 3.77999
143 3 1.83338 7.1809 5.24383
144 4 0.075723 8.93338 5.35948
145 2 3.41244 7.04226 3.58892
146 4 5.06047 8.70988 3.39981
147 3 5.42793 7.13705 5.31309
148 2 3.52486 9.15375 5.34294
149 3 6.92791 6.95205 3.6223
150 4 8.62495 8.50091 3.71528
151 3 8.60903 7.01319 5.48844
152 3 6.91282 8.74707 5.1523
153 2 10.643 6.90301 3.717
154 2 12.552 8.81559 3.49316
155 4 12.4954 7.06334 5.56548
156 4 10.6105 8.77597 5.45185
157 3 14.4285 6.93022 3.8017
158 4 16.1375 8.65569 3.49102
159 3 16.2658 7.09815 5.29764
160 3 14.4157 8.72711 5.47617
161 4 17.7209 10.5513 3.63219
162 4 1.93363 12.6491 3.34852
163 3 1.58915 10.9931 5.03867
164 1 0.026066 12.7649 5.19837
165 4 3.58223 10.9698 3.4302
166 2 5.5955 12.4137 3.21799
167 1 5.31339 10.6934 5.45781
168 3 3.76 12.8311 5.24567
169 3 7.04486 10.5185 3.52326
170 2 9.17755 12.4511 3.49054
171 3 8.77303 10.5375 5.07968
172 3 7.12217 12.3105 5.20773
173 4 10.8175 10.6571 3.83993
174 3 12.0044 12.7143 3.71701
175 4 12.6196 10.3569 5.33254
176 1 10.4528 12.6668 5.58361
177 1 14.1363 10.5475 3.57741
178 3 16.2267 12.2056 3.40764
179 4 16.0142 10.7364 5.40649
180 1 14.1479 12.4163 4.89153
181 2 0.0359985 14.4776 3.57728
182 2 2.40353 16.2263 3.26063
183 1 1.95242 14.7026 5.35361
184 4 17.7304 15.8134 5.52738
185 3 3.84837 14.3816 3.26177
186 3 5.78935 16.2616 3.31597
187 3 5.75052 14.4335 5.10482
188 2 3.79063 15.89 5.46984
189 2 7.15397 13.9763 3.62246
190 2 8.53121 16.0488 3.54556
191 4 8.98523 14.3832 5.40037
192 2 7.13704 16.1676 5.84784
193 4 10.6218 14.5688 3.4622
194 4 12.4192 16.3607 3.48071
195 4 12.3252 14.3958 5.23459
196 2 10.3431 16.3554 5.33429
197 2 14.38 14.1688 3.73015
198 1 15.8735 15.9034 3.5382
199 3 15.9592 14.2717 5.47418
200 2 14.2809 16.1229 5.29033
201 1 -0.0224652 17.5782 7.4866
202 1 1.89476 1.26534 6.82654
203 2 1.83707 17.7441 8.82875
204 3 0.177461 1.70321 8.55812
205 2 3.6663 17.7143 7.07536
206 1 5.02697 1.78409 7.2261
207 1 5.07618 17.7328 8.78584
208 2 3.52182 1.75931 8.81735
209 3 6.98743 0.207222 7.09086
210 2 8.72164 1.72326 7.19512
211 2 9.03751 17.4447 9.07464
212 1 7.2556 1.85392 8.70689
213 2 10.5887 17.6524 7.17105
214 4 12.613 1.59848 7.00032
215 3 12.4909 0.0227883 8.63274
216 3 10.8411 1.48495 8.53719
217 3 14.2154 17.8202 7.24957
218 4 16.0452 1.5195 7.26688
219 2 16.1874 17.6163 9.01602
220 3 14.3639 2.0092 8.70651
221 2 17.196 3.51912 6.7821
222 1 1.69967 5.35138 6.93767
223 4 1.60764 3.56359 8.85146
224 2 0.279405 5.40886 8.91696
225 1 3.14209 3.37443 7.16358
226 4 5.13971 5.46945 7.1251
227 3 5.01952 3.7128 8.862
228 4 3.45603 5.623 9.13106
229 3 6.93984 3.59193 7.16509
230 4 8.9332 5.23867 7.29383
231 2 8.98897 3.44873 8.86672
232 2 6.98494 5.34448 8.94823
233 2 10.754 3.45989 7.29992
234 2 12.493 5.34662 7.55165
235 1 12.1768 3.36178 8.9562
236 3 10.6761 5.51438 9.26251
237 4 14.1545 3.59661 7.11805
238 3 15.8424 5.17419 7.39711
239 4 16.3943 3.62429 8.86513
240 2 14.464 5.73711 9.08654
241 3 0.197034 7.18375 7.10147
242 4 1.81395 8.8105 7.13979
243 3 1.88113 7.26828 8.88809
244 3 -0.070982 9.1723 8.75924
245 3 3.54369 7.24835 7.04629
246 1 5.16032 8.84023 7.00894
247 4 5.25914 6.81475 9.02377
248 1 3.39808 9.09688 8.92428
249 1 7.14653 7.44741 7.07914
250 2 8.76395 9.01579 7.18925
251 4 8.83568 7.07162 9.09185
252 1 6.93701 8.89857 8.89928
253 3 10.4282 7.0151 7.25158
254 2 12.1544 8.95428 7.37759
255 2 12.2628 7.12546 9.42879
256 4 10.514 8.9382 8.76338
257 2 14.407 7.13122 7.17289
258 2 16.343 9.0742 6.96886
259 3 16.4616 7.28183 8.98589
260 3 14.3865 8.64073 8.91185
261 1 -0.0462462 10.8962 7.08545
262 2 1.70083 12.8293 6.94073
263 1 1.74177 11.1158 8.55341
264 3 17.8872 12.5337 8.94518
265 1 3.37273 11.0622 6.964
266 3 5.31509 12.5569 6.98216
267 3 5.00027 10.7989 8.68642
268 2 3.49209 12.5541 8.49247
269 1 7.01701 10.7388 7.07575
270 4 8.96276 12.7444 7.23935
271 2 8.99398 10.7035 8.69733
272 2 7.14513 12.4471 8.83685
273 1 10.6678 10.6695 7.09701
274 1 12.7511 12.1325 6.88625
275 1 12.5527 10.5707 9.05834
276 3 10.8624 12.492 8.76258
277 4 14.3954 10.4082 7.19554
278 3 15.6415 12.4026 7.1887
279 3 15.9757 10.8558 8.90559
280 1 14.1536 12.3611 9.05501
281 1 17.7701 14.0671 7.19651
282 1 1.59113 16.1319 7.34725
283 4 1.77474 14.0708 8.93146
284 3 -0.0158266 15.687 9.02605
285 1 3.47457 14.386 7.0458
286 1 5.24934 16.0925 7.26987
287 4 5.26902 14.1478 9.07766
288 4 3.57474 15.8414 9.19963
289 4 7.19094 14.2729 7.03611
290 1 8.58416 16.4452 7.19015
291 1 8.90612 14.8199 8.8991
292 2 6.91151 15.9442 8.97836
293 4 10.7948 14.5041 7.23343
294 4 12.4358 16.1489 6.93033
295 3 12.6119 14.1788 8.94823
296 2 10.8934 15.9162 9.20216
297 4 14.294 14.3236 7.19281
298 3 16.0454 16.0033 7.21309
299 1 16.0677 14.1514 8.97629
300 3 14.2886 16.0509 8.83032
301 1 -0.0343238 -0.178388 10.369
302 2 1.51367 1.39482 10.5898
303 1 1.78915 17.5438 12.5064
304 3 17.9335 1.55731 12.5494
305 4 3.65849 17.826 10.5198
306 4 5.0729 1.82664 10.5518
307 1 5.21544 0.270371 12.3827
308 2 3.30593 1.63008 12.6055
309 1 7.13212 -0.173103 10.3363
310 2 9.03846 1.5338 10.4234
311 1 8.75619 0.60749 12.2377
312 4 7.04371 1.94812 12.3585
313 3 10.8025 0.0957522 10.5949
314 3 12.8434 1.64057 10.4687
315 2 12.7786 17.8373 12.0914
316 2 11.0233 1.45537 12.5819
317 2 14.3753 17.4451 10.5756
318 2 16.0886 1.57963 10.4662
319 2 16.2297 17.6664 12.322
320 4 14.7367 1.61622 12.4621
321 3 17.7862 3.26831 10.741
322 2 1.79634 5.50272 11.029
323 4 1.62141 3.28212 12.418
324 1 17.8438 5.58181 12.0797
325 4 3.29194 3.3677 10.5385
326 4 5.31494 5.32033 11.1492
327 4 4.99865 3.47248 12.3005
328 3 3.54048 5.54343 12.7399
329 2 7.12225 3.33368 10.5142
330 4 8.89402 5.24671 10.7029
331 1 9.11819 3.43183 12.5361
332 4 7.16826 5.01373 12.4064
333 1 10.5468 2.79698 10.6882
334 2 12.4998 4.7676 10.7028
335 4 12.6879 3.23419 12.3992
336 4 10.7158 5.23691 12.742
337 4 14.7567 3.37692 10.4738
338 2 16.1396 5.54382 10.6426
339 3 16.1266 3.52098 12.3748
340 4 14.3693 4.97587 12.1771
341 2 0.371648 7.5673 10.7115
342 1 1.53934 9.35893 10.3823
343 2 1.64614 7.26695 12.8939
344 1 17.7677 9.10992 12.6651
345 3 3.45209 7.58251 10.7975
346 1 5.27825 9.15313 10.6715
347 3 5.16912 7.27148 12.6087
348 4 3.23953 9.11241 12.8822
349 4 6.95169 7.01992 11.0357
350 1 9.09592 8.84471 10.6991
351 1 8.97676 6.76084 12.4749
352 1 7.48166 8.54494 12.463
353 1 10.667 7.21682 10.9199
354 1 12.4817 9.11708 11.0618
355 4 12.674 7.07692 12.2841
356 4 10.7195 8.6645 12.8012
357 1 14.5016 7.11918 10.7662
358 4 16.4472 9.0331 10.5341
359 1 16.2423 7.26513 12.3268
360 1 14.2915 9.04871 12.4443
361 2 17.5927 10.8602 11.2485
362 4 1.4513 12.1054 10.5351
363 3 1.71287 10.8008 12.6608
364 1 17.7863 12.4305 12.6086
365 3 3.43012 10.9844 10.53
366 4 5.4471 12.3904 10.6352
367 1 5.84577 10.4858 12.5551
368 1 4.01767 12.5474 12.7046
369 1 7.28753 10.4445 10.5829
370 4 9.14846 12.3434 10.4325
371 1 8.84332 10.7245 12.2296
372 1 7.09171 12.5443 12.4032
373 2 10.8467 10.7183 10.8415
374 1 12.5812 12.4953 11.0395
375 2 12.715 10.8288 12.6321
376 4 10.5474 12.5996 12.2058
377 3 14.3487 10.594 10.6448
378 1 16.2647 12.3111 10.916
379 1 15.7646 10.6497 12.9695
380 2 14.3336 12.5187 12.233
381 1 17.8572 14.0963 10.6282
382 2 1.68868 15.4212 10.9508
383 2 1.49326 13.6835 12.4163
384 3 0.126367 15.8144 12.5844
385 2 3.44966 13.6374 10.8302
386 2 5.25858 16.1069 10.8049
387 1 5.44086 14.4003 12.0154
388 1 3.41238 15.6763 12.278
389 1 7.31645 14.3889 10.6769
390 3 8.84728 16.2481 11.1932
391 2 8.96936 14.0095 12.267
392 4 6.8787 16.637 12.5479
393 1 10.6876 14.4231 10.7032
394 1 12.4816 15.9704 10.7618
395 2 12.2659 14.414 12.8363
396 4 11.0841 16.5177 12.3691
397 3 14.3037 14.2628 10.842
398 1 16.2893 16.0633 10.6972
399 3 16.232 14.2174 12.5875
400 4 14.218 15.8934 12.7562
401 4 17.7698 17.6404 14.4422
402 4 1.58737 1.77913 14.3388
403 1 1.86928 -0.0490598 16.0038
404 4 -0.106237 1.75325 15.9226
405 4 3.66862 0.0447128 14.3332
406 4 5.1524 2.0911 14.3337
407 4 5.12607 0.0325755 16.2176
408 3 3.48968 1.96334 15.8361
409 2 7.0541 0.311227 14.2994
410 2 8.84725 2.0828 14.1643
411 2 8.70496 0.482282 16.2889
412 3 7.22381 2.06173 15.9705
413 1 10.2954 0.0790814 14.4489
414 1 12.5128 1.2787 14.4536
415 3 12.4703 17.8082 16.3761
416 3 10.7787 2.08732 16.226
417 4 14.3978 17.7838 14.0545
418 2 16.1013 1.68164 14.4076
419 2 15.9386 17.5547 16.1052
420 4 14.2211 1.4135 16.0979
421 4 17.6442 3.60504 14.2144
422 3 1.37795 5.21979 13.968
423 2 1.34986 3.75421 15.8909
424 1 0.0165995 5.25046 16.1119
425 3 3.34344 3.54726 14.158
426 1 5.37473 5.19085 14.4968
427 2 5.41785 3.72777 16.2201
428 2 3.52645 5.34474 15.8003
429 3 6.87723 3.56064 14.0671
430 2 8.85337 5.23763 14.2648
431 2 9.1839 3.68871 16.4035
432 1 7.34221 5.0011 16.132
433 3 11.0266 3.61711 14.2596
434 3 12.5809 5.28838 14.1558
435 1 12.9659 3.64137 15.7757
436 3 10.7323 5.12799 15.9381
437 2 14.3515 3.57916 14.2935
438 3 15.982 5.34171 14.1112
439 3 16.0094 3.39251 16.1012
440 1 14.408 5.08142 15.971
441 1 17.8975 7.05446 14.1966
442 3 1.73458 8.95645 14.7753
443 4 1.75284 6.88199 15.9792
444 4 17.6066 8.6865 15.9244
445 4 3.41415 7.33578 14.4667
446 4 5.4855 8.75432 14.5571
447 3 5.4605 7.03312 15.9608
448 2 3.75006 8.84066 16.2612
449 1 6.98542 6.72907 14.2847
450 4 8.91322 8.82558 14.3729
451 3 8.93554 7.08129 16.2504
452 1 7.09711 8.94224 16.5579
453 3 10.862 7.00528 14.4118
454 3 12.5872 8.55016 14.154
455 3 12.6667 6.97045 16.2564
456 1 11.0814 8.80949 16.1586
457 4 14.3279 7.06072 14.3075
458 2 16.0472 8.71021 14.1809
459 3 15.852 7.13186 16.1388
460 3 14.0118 9.09341 16.285
461 3 0.0185222 10.784 14.5991
462 4 1.72003 12.4114 14.2377
463 2 2.03882 10.909 16.3041
464 4 17.8635 12.617 16.2636
465 2 3.7652 10.8192 14.6111
466 1 5.46531 12.2798 14.4299
467 4 5.32014 10.6092 16.2455
468 1 3.62023 12.6263 16.4104
469 2 7.17962 10.3001 14.654
470 4 9.18791 12.4377 14.0536
471 1 9.10913 10.7287 16.0694
472 1 7.37907 12.4507 15.6781
473 2 10.8369 10.5024 14.4747
474 1 12.3574 12.4652 13.8572
475 1 11.9711 10.9895 16.3526
476 3 10.7403 12.8544 15.6943
477 3 13.7978 10.6316 14.5594
478 3 15.9244 12.6343 14.448
479 4 15.7108 10.7013 15.849
480 3 14.0689 12.5894 16.0226
481 3 0.15533 14.1299 14.5271
482 1 2.09471 15.5901 14.3181
483 1 2.07683 14.5756 16.2117
484 4 -0.219057 15.9063 16.2058
485 4 3.99412 14.097 14.4754
486 3 5.22334 15.9163 14.2386
487 3 5.59219 14.2755 16.1207
488 4 3.82976 16.0767 16.5072
489 1 7.33508 14.1838 14.1817
490 1 8.84035 16.2335 13.7713
491 1 8.89589 14.6883 15.8231
492 4 7.07248 16.2191 15.7456
493 1 10.3418 14.802 13.7987
494 3 12.3577 16.4387 14.3655