ITEM: TIMESTEP
2000
ITEM: NUMBER OF ATOMS
500
ITEM: BOX BOUNDS pp pp pp
-1.8709141680350783e-01 1.7987091416803434e+01
-1.8709141680350783e-01 1.7987091416803434e+01
-1.8709141680350783e-01 1.7987091416803434e+01
ITEM: ATOMS id type x y z
1 4 -0.140185 -0.152634 17.7298
2 2 1.46943 1.5058 17.8089
3 4 1.64393 -0.0988792 1.38471
4 2 17.9725 1.44268 1.30278
5 2 3.29869 17.9045 17.8347
6 3 5.42226 1.65649 17.8167
7 3 5.35968 -0.0893365 1.59653
8 1 3.66313 1.53516 1.34544
9 1 7.10645 -0.15193 17.8856
10 4 8.86204 1.76815 17.8493
11 2 8.90211 -0.112497 1.32978
12 4 7.18553 1.44176 1.49621
13 4 10.6592 -0.164087 -0.167162
14 1 12.5465 1.57218 -0.0832868
15 3 12.3921 -0.169953 1.58956
16 1 10.6696 1.98812 1.7497
17 4 14.3312 17.7779 -0.0116455
18 3 16.3555 1.59738 -0.164814
19 1 16.2467 17.9825 1.71465
20 2 14.2934 1.63382 1.86327
21 3 -0.0945672 3.45777 17.6992
22 3 1.67878 5.52503 17.9296
23 2 1.85166 3.23645 1.37007
24 2 -0.0890865 5.13561 1.50132
25 3 3.44989 3.48603 17.8511
26 3 5.11534 5.18472 -0.136444
27 2 5.43479 3.1362 1.5638
28 4 3.45722 5.12649 1.77665
29 2 7.33208 3.62621 -0.174679
30 1 8.89086 5.13314 17.9181
31 2 8.79917 3.69187 1.78642
32 1 7.05128 5.2841 1.55589
33 2 10.6201 3.34085 17.762
34 4 12.546 5.30454 17.9183
35 4 12.5125 3.37886 1.45311
36 1 10.8682 5.29307 1.20433
37 2 14.569 3.32525 17.771
38 3 16.4291 5.21577 17.9591
39 4 16.3846 3.5222 1.48466
40 2 14.5963 5.38016 1.3276
41 4 17.8541 7.32424 17.7576
42 1 1.59536 8.89779 -0.0440969
43 3 1.4065 7.10982 1.58967
44 4 17.9294 9.07498 1.51469
45 1 3.51904 7.02171 0.0901295
46 2 5.24722 8.61018 -0.00576372
47 3 5.36363 7.05122 1.89486
48 2 3.35376 8.86486 1.80582
49 1 7.11357 7.28952 -0.0837099
50 3 8.72036 9.00711 17.8385
51 4 9.00885 6.83383 1.58525
52 2 7.22532 8.96791 1.78979
53 1 10.8024 7.27606 17.9537
54 1 12.8401 8.84789 0.157722
55 4 12.5349 7.23395 1.8416
56 4 10.6478 8.746 1.59069
57 3 14.201 7.01962 17.9106
58 3 16.3982 9.18323 -0.178281
59 3 16.3803 7.17238 1.43247
60 2 14.4734 8.96742 1.73414
61 1 -0.139555 11.0604 17.6429
62 3 1.79196 12.5006 17.9665
63 3 1.39908 10.6964 1.59825
64 4 17.958 12.3868 1.61408
65 2 3.32514 10.8382 0.146878
66 3 5.32675 12.5613 17.8182
67 4 5.21691 10.7526 1.90651
68 1 3.43453 12.5191 1.57752
69 1 7.03266 10.8856 0.0206837
70 2 8.65654 12.4208 0.0959652
71 4 9.05272 10.6249 1.64994
72 1 7.16819 12.5989 1.97994
73 1 10.714 10.6493 -0.139229
74 2 12.4398 12.6419 0.197235
75 2 12.6232 10.6199 1.8125
76 3 10.6421 12.6846 1.69214
77 1 14.2547 10.9556 -0.0836213
78 1 16.1109 12.4622 -0.0815359
79 4 16.0779 10.7125 2.01735
80 3 14.3572 12.3326 1.97004
81 4 -0.186113 14.1345 17.9488
82 2 1.4332 16.1042 17.587
83 1 1.31828 14.4573 1.542
84 3 17.9625 16.1642 1.24366
85 2 3.45297 14.3501 -0.120427
86 3 5.39509 16.1082 0.0283362
87 4 5.21968 14.1728 1.46383
88 1 3.39867 16.0929 1.43347
89 4 7.28786 14.4412 -0.0888639
90 1 9.07665 16.4358 17.8093
91 1 8.88758 14.3467 1.81228
92 1 7.26343 16.3738 1.61511
93 3 10.442 14.4606 -0.0880585
94 3 12.5528 15.9288 -0.0934421
95 4 12.7308 14.4702 1.80455
96 1 10.6617 16.1844 1.72043
97 4 14.4406 14.1372 -0.00432536
98 2 16.1679 16.2548 17.9427
99 2 16.3517 14.2721 1.64526
100 2 14.6375 15.9356 1.62731
101 3 -0.148436 17.9486 3.23823
102 3 1.94589 1.65537 3.18393
103 1 1.84638 17.8443 5.21512
104 3 0.121742 1.5646 5.27621
105 4 3.49483 17.7723 3.081
106 2 5.23068 1.41808 3.51542
107 3 5.25908 17.7733 5.15779
108 3 3.46726 1.5782 5.32784
109 2 7.31099 17.9291 3.41092
110 2 8.92261 1.72506 3.47544
111 2 8.97424 -0.172669 5.31353
112 1 7.20464 1.51189 5.10316
113 2 10.6676 0.105898 3.39271
114 2 12.5663 1.85056 3.66057
115 4 12.3325 0.113546 5.44134
116 2 10.5453 1.93756 5.33413
117 2 14.4197 -0.166729 3.45832
118 1 16.1338 1.79651 3.23103
119 4 16.3669 0.0219084 5.02283
120 1 14.3572 1.794 5.4157
121 2 -0.168709 3.25687 3.42176
122 2 1.67411 5.18318 3.12054
123 3 1.84309 3.62537 5.06465
124 1 17.9752 5.13712 5.25381
125 3 3.44638 3.21791 3.10224
126 4 5.06847 4.9892 3.37131
127 4 5.13441 3.52521 5.41361
128 4 3.66632 5.52067 5.43044
129 1 6.95819 3.32193 3.1939
130 4 8.74546 5.30019 3.37774
131 2 8.46935 3.45764 5.19656
132 4 7.01166 5.18657 5.37523
133 3 10.859 3.87672 3.53375
134 3 12.5399 5.48333 3.72288
135 4 12.564 3.6115 5.33897
136 4 10.5397 5.237 5.68878
137 1 14.2944 3.50836 3.37659
138 3 16.4225 5.39627 3.42864
139 1 16.1659 3.16702 5.17685
140 3 14.3937 5.48659 5.16381
141 4 -0.135216 7.33532 3.09666
142 4 1.65494 8.82413 3.53307
143 3 1.66837 6.8557 4.93195
144 4 -0.05046 9.05524 5.25407
145 1 3.33906 7.09419 3.36753
146 4 5.20504 8.86851 3.4639
147 3 5.3187 7.06598 5.02621
148 2 3.54286 8.69176 5.30134
149 3 7.23783 7.0509 3.54721
150 1 8.87888 8.96457 3.43972
151 3 8.56643 6.9092 5.33407
152 4 6.92396 8.77884 5.44026
153 2 10.5737 6.79323 3.64414
154 2 12.5004 8.67714 3.52264
155 2 12.2814 7.33678 5.53734
156 4 10.5977 8.9592 5.34532
157 4 14.4681 7.03899 3.36448
158 4 16.4514 8.93767 3.51903
159 3 16.2137 7.21644 5.28858
160 3 14.6201 8.94912 5.12703
161 4 17.9489 10.7839 3.45457
162 4 1.55464 12.4908 3.38255
163 2 1.76396 10.5173 5.39419
164 1 0.156918 12.462 5.30999
165 4 3.22278 10.7541 3.42681
166 2 5.19252 12.5702 3.36975
167 1 4.99686 10.4516 5.17775
168 3 3.78657 12.4323 5.40738
169 4 6.92424 10.7292 3.65999
170 2 8.81816 12.408 3.43587
171 3 8.79206 10.6101 5.46184
172 3 7.07235 12.4426 5.5094
173 2 10.7253 10.59 3.35452
174 3 12.6372 12.2306 3.52607
175 4 12.3643 10.5285 5.49476
176 1 10.7671 12.2388 5.54681
177 1 14.3932 10.7503 3.81823
178 3 16.3207 12.5375 3.69564
179 4 16.2177 10.7693 5.56567
180 4 14.1674 12.4795 5.34956
181 2 0.0176136 14.1936 3.56771
182 2 1.49644 16.4018 3.38507
183 1 1.95892 14.2155 5.40795
184 4 -0.135655 16.3236 5.45186
185 3 3.09272 14.3657 2.9581
186 3 5.44319 16.1442 3.39564
187 3 5.46865 14.3623 5.46325
188 2 3.39491 16.0759 5.23126
189 2 7.36886 14.5051 3.37776
190 4 9.04491 16.2083 3.39519
191 4 8.80161 14.4228 5.10636
192 2 7.23398 16.1954 5.395
193 4 10.4925 14.2546 3.57015
194 2 12.5482 16.3412 3.13212
195 2 12.5477 14.1513 5.13579
196 2 10.6231 16.0962 4.91724
197 2 14.5 14.4239 3.64374
198 1 16.4828 16.2174 3.36493
199 3 16.1097 14.5562 5.38781
200 2 14.1664 16.4169 4.87096
201 1 -0.109572 17.9321 7.07823
202 1 1.85219 1.3863 7.18993
203 2 1.61107 17.6443 8.90554
204 3 -0.0917338 1.77954 8.84075
205 2 3.41308 17.9184 6.92358
206 1 5.12126 1.4618 7.22564
207 1 5.41236 17.7826 9.04032
208 2 3.38308 1.49667 9.03608
209 3 7.08651 17.8826 6.99361
210 2 8.66304 1.94891 6.98036
211 2 8.5577 -0.0270235 8.99439
212 1 6.92673 1.54972 9.05856
213 2 10.6052 -0.170589 7.22205
214 4 12.438 1.55722 7.00387
215 3 12.2246 17.7533 8.63691
216 3 10.7233 1.90743 8.83712
217 3 14.2763 17.907 6.89363
218 4 16.316 1.59936 6.82561
219 2 16.3035 -0.179769 8.71207
220 3 14.5748 1.55021 8.56135
221 2 0.116025 3.37442 6.65348
222 1 1.27867 5.42539 7.28325
223 4 1.71799 3.44924 8.79481
224 2 -0.1443 4.92533 8.83689
225 1 3.77292 3.20722 7.29945
226 4 5.39753 5.15747 7.23142
227 3 5.29111 3.68289 9.10188
228 4 3.33245 5.40633 9.00284
229 3 6.87697 3.14261 7.20133
230 4 8.75344 5.26957 7.39819
231 2 8.68716 3.2247 9.04945
232 2 7.08711 5.16271 9.11872
233 2 10.7048 3.49719 7.28916
234 2 12.4866 5.31594 7.19754
235 2 12.6138 3.41064 8.91809
236 3 10.6083 5.01739 9.13413
237 4 14.3405 3.45144 7.23791
238 3 16.2048 4.98602 6.8501
239 4 16.2189 3.22286 8.89036
240 1 13.9277 5.26276 9.01285
241 3 17.8989 6.89307 6.88947
242 4 1.62608 8.40349 6.98527
243 3 1.63402 7.03477 8.87516
244 3 17.8231 8.72559 8.74471
245 1 3.56548 7.01174 7.10799
246 1 5.21617 8.74185 7.3245
247 4 5.1981 7.02119 8.85223
248 1 3.44722 9.09297 8.97156
249 1 7.02446 6.86662 7.43465
250 2 8.59253 8.51519 7.29389
251 4 8.95344 7.02998 9.3119
252 1 7.06523 8.64968 8.93259
253 3 10.3484 7.09294 7.22553
254 2 12.5366 8.987 7.141
255 2 12.7019 7.09109 9.09555
256 4 10.7188 8.84738 8.83037
257 2 14.4591 6.99191 7.19817
258 2 16.3524 8.71782 6.84372
259 3 16.1108 6.85008 8.93525
260 3 14.5475 8.83073 8.59903
261 1 0.111796 10.689 7.26398
262 2 1.86403 12.6573 7.17392
263 1 1.5893 10.6164 8.85273
264 3 -0.151858 12.7072 8.86571
265 1 3.39184 10.4044 7.10706
266 3 5.38524 12.5579 7.2702
267 3 5.50787 10.8711 8.93353
268 2 3.41087 12.6758 9.05042
269 1 6.6299 10.3723 7.00424
270 4 8.63447 12.3763 6.88236
271 2 8.43835 10.6889 8.79177
272 1 7.03907 12.8738 8.98856
273 3 10.5469 10.319 7.12181
274 1 12.4774 12.5068 7.04221
275 4 12.6514 10.445 9.04906
276 3 10.7518 12.3167 8.71215
277 4 14.2404 10.748 7.24203
278 3 16.2885 12.736 7.03271
279 3 16.3121 10.7582 8.67464
280 1 14.3317 12.5195 8.84017
281 1 -0.0686236 14.4057 7.13716
282 1 1.523 16.2258 7.15219
283 4 1.72948 14.3587 9.04718
284 3 17.868 16.0765 8.90438
285 4 3.50603 14.4573 6.96652
286 1 5.22525 16.2019 7.09179
287 4 5.35553 14.3043 8.95215
288 4 3.49706 15.8566 8.85213
289 3 7.32634 14.4332 7.15294
290 1 9.15497 16.0871 7.08738
291 1 9.08078 14.1086 8.80757
292 2 7.35943 15.9434 8.91903
293 4 10.6314 14.3948 6.84959
294 4 12.3804 16.2615 7.08837
295 3 12.3089 14.308 8.82363
296 2 10.5807 16.0345 8.66439
297 4 14.2769 14.5109 7.11103
298 3 16.137 16.5707 6.93488
299 1 16.013 14.3326 9.01558
300 2 14.38 16.2824 9.08118
301 2 -0.0347934 17.8475 10.6268
302 1 1.60353 1.61751 10.4851
303 1 1.53348 17.9651 12.4934
304 3 0.0535586 1.53707 12.5595
305 4 3.55748 -0.179074 11.1257
306 4 5.16763 1.46646 10.6367
307 2 5.37883 17.9709 12.8372
308 3 3.29858 1.59185 12.5786
309 1 7.15972 17.9113 11.1098
310 4 8.9157 1.45674 10.6691
311 1 8.71926 17.9191 12.6075
312 4 7.08787 1.59254 12.6196
313 3 10.5915 17.741 10.4662
314 3 12.9339 1.47871 10.3981
315 2 12.5174 17.9364 12.5885
316 2 10.823 1.65187 12.1556
317 2 14.3815 17.7891 10.6345
318 2 16.4034 1.80174 10.4463
319 2 16.0533 17.9386 12.5376
320 4 14.5643 1.79313 12.5928
321 3 -0.0361202 3.19833 10.7323
322 3 1.54936 5.38842 10.8217
323 4 1.73313 3.63805 12.4508
324 1 -0.129204 5.50605 12.6031
325 4 3.51094 3.45848 10.7348
326 4 5.22848 5.06814 11.1204
327 4 5.44067 3.11971 12.6156
328 1 3.28473 5.7183 12.669
329 3 7.20662 3.49438 10.9093
330 4 8.97167 5.41071 10.9603
331 1 8.91202 3.42234 12.8125
332 4 7.1482 5.24802 12.782
333 1 10.9371 3.25311 10.6875
334 2 12.7321 5.46389 11.1033
335 4 12.6974 3.2184 12.4106
336 4 10.6946 5.41459 12.3546
337 4 14.5731 3.35585 10.7964
338 2 16.1747 5.21161 10.7199
339 3 16.3069 3.49848 12.692
340 4 14.5605 4.90081 12.5123
341 1 -0.0503931 7.14473 10.4607
342 1 1.75902 8.84483 10.4183
343 2 1.66645 7.43051 12.4501
344 1 17.9525 8.97248 12.4635
345 3 3.39101 7.18356 10.8458
346 3 4.96212 8.91993 10.7369
347 3 5.19813 7.19244 12.7159
348 4 3.49891 9.07966 12.7624
349 4 6.79183 7.00674 10.942
350 1 8.63603 9.20802 10.6489
351 1 8.63192 7.2916 12.5809
352 1 7.19684 8.9079 12.5458
353 1 10.8436 7.27293 10.9064
354 1 12.3801 9.19823 10.8693
355 3 12.5608 7.38143 12.646
356 1 10.7894 9.11388 12.687
357 1 14.4364 7.20679 10.6587
358 4 16.3467 8.9393 10.4137
359 4 16.3684 7.38464 12.0818
360 1 14.4338 8.88498 12.4347
361 2 -0.0425745 10.6288 10.67
362 4 1.70281 12.6385 10.7823
363 3 1.48746 10.7113 12.4414
364 3 17.9171 12.5001 12.5895
365 3 3.39022 10.7315 10.7877
366 4 5.18132 12.4585 10.8563
367 1 4.99442 10.8526 12.556
368 1 3.30357 12.6985 12.6708
369 1 6.88179 10.9796 10.9072
370 4 8.85827 12.5586 10.6245
371 1 8.79857 10.7159 12.5992
372 1 7.05044 12.5476 12.7429
373 2 10.3944 10.8495 10.7417
374 1 12.5125 12.3262 10.7876
375 2 12.5524 10.8038 12.3454
376 4 10.4717 12.4751 12.337
377 3 14.5797 10.4716 10.5502
378 1 16.2546 12.3582 10.4519
379 1 16.3059 10.5677 12.1314
380 2 14.4966 12.2014 12.207
381 1 0.0702245 14.3958 10.7103
382 2 1.95813 16.177 10.8665
383 2 1.63633 14.211 12.5365
384 3 -0.0620108 16.0313 12.3048
385 2 3.43273 14.2833 10.8348
386 2 5.15504 16.1555 10.7978
387 1 5.10233 14.4386 12.6828
388 1 3.49899 16.1741 12.7587
389 1 6.8635 14.2619 10.8821
390 3 8.96213 16.094 10.6957
391 4 8.85965 14.1839 12.3605
392 4 7.2313 16.0337 12.7032
393 1 10.5525 14.3433 10.7696
394 2 12.5723 15.9307 10.8405
395 2 12.1251 14.1095 12.5216
396 4 10.5441 16.2263 12.4229
397 3 14.3181 13.9808 10.588
398 1 16.3993 16.2798 10.707
399 3 16.1937 14.3099 12.4546
400 3 14.1721 15.8547 12.6237
401 4 17.698 17.9357 14.2549
402 4 1.44153 1.63626 14.3967
403 1 1.60378 -0.0939841 16.0414
404 4 17.9475 1.58031 16.0731
405 2 3.16355 0.0423208 14.6201
406 4 4.93878 1.64917 14.4442
407 4 5.24526 -0.181275 16.2845
408 3 3.55572 1.66704 16.2532
409 2 6.93266 -0.0465607 14.4774
410 2 9.03388 1.57874 14.3034
411 2 9.19494 0.00157942 16.2113
412 3 7.05672 1.6052 16.2691
413 1 10.5278 -0.0999366 14.2435
414 1 12.6051 1.70038 14.3316
415 3 12.8506 0.184712 16.1649
416 1 10.5352 1.69114 16.0735
417 4 14.4722 -0.134002 14.2167
418 2 16.2055 1.62375 14.3162
419 2 16 -0.162842 16.0325
420 4 14.5766 1.80456 16.047
421 4 -0.0755154 3.42199 14.3381
422 3 1.54325 5.42374 14.3521
423 2 1.7225 3.36508 16.1395
424 1 17.9653 5.42734 16.0493
425 3 3.22618 3.46103 14.2049
426 1 4.85566 5.25845 14.2882
427 2 5.10983 3.74629 15.9696
428 2 3.2956 5.391 16.2763
429 3 6.77751 3.42336 14.3531
430 4 8.98573 5.5565 14.2595
431 2 9.09009 3.68471 15.9127
432 1 6.97047 5.42704 16.0338
433 3 10.8118 3.59749 14.4214
434 3 12.7189 5.51121 14.1761
435 2 12.7801 3.31163 15.9633
436 3 10.7914 5.40252 16.1874
437 2 14.4641 3.26854 14.3117
438 3 15.8931 5.63417 14.3404
439 3 16.159 3.77697 15.9826
440 1 14.3052 5.31468 16.2049
441 1 17.943 7.34291 14.3827
442 1 1.69473 9.01148 14.507
443 4 1.60474 7.22875 16.3763
444 4 17.9067 9.09358 16.0289
445 2 3.39822 7.39952 14.5399
446 4 5.48645 9.02238 14.1564
447 3 5.22014 7.04112 16.1058
448 2 3.43317 8.78064 16.3319
449 1 7.13249 7.04943 14.4724
450 4 8.77137 8.82702 14.552
451 3 8.76105 7.1365 16.3238
452 2 6.71293 8.94648 16.1085
453 3 10.7294 7.07183 14.348
454 4 12.3988 9.11717 14.3378
455 3 12.6421 7.10257 15.9233
456 1 10.8338 8.93426 16.3721
457 4 14.3116 7.3401 14.2831
458 2 16.1896 9.10925 14.1751
459 3 16.1828 6.98205 16.3808
460 3 14.2056 9.09263 16.4141
461 3 -0.100758 10.9323 14.1969
462 4 1.54926 12.455 14.352
463 2 1.495 10.7321 16.1138
464 4 -0.149726 12.6667 16.0772
465 2 3.46456 10.8881 14.4388
466 1 5.1702 12.8575 14.4157
467 4 5.41586 10.7846 16.2448
468 1 3.53427 12.7754 16.1224
469 2 6.873 10.9424 14.5172
470 4 8.92951 12.6687 14.149
471 1 8.71133 10.682 15.9911
472 1 7.10526 12.5211 16.0654
473 2 10.5123 10.81 14.5923
474 1 12.6366 12.3703 14.2634
475 1 12.4689 10.9932 16.4211
476 3 10.6426 12.5154 16.2088
477 2 14.5833 10.7314 14.0159
478 3 16.1131 12.421 14.205
479 4 16.1207 10.5995 16.2098
480 3 14.4064 12.4772 16.1002
481 3 -0.0787131 14.4803 14.0612
482 2 1.33232 16.3089 14.1302
483 1 1.69468 14.3527 16.2381
484 4 17.6979 16.3084 15.8482
485 4 3.41045 14.4196 14.4242
486 3 5.37358 15.9895 14.2611
487 3 5.19189 14.5376 16.248
488 4 3.3235 16.193 16.1813
489 1 7.12024 14.1721 14.2776
490 1 8.92807 16.2433 14.5006
491 1 8.80355 14.2121 15.9998
492 4 7.1764 16.3808 15.9933
493 1 10.8179 14.4368 14.4808
494 3 12.1891 16.0288 14.29
495 2 12.5048 13.8615 16.2381
496 2 11.0382 16.2115 16.2118
497 3 14.3149 14.1972 14.2429
498 2 15.8834 16.0939 14.2412
499 3 16.0919 14.3336 16.4047
500 1 14.069 16.1575 16.0552
ITEM: TIMESTEP
2500
ITEM: NUMBER OF ATOMS
500
ITEM: BOX BOUNDS pp pp pp
-1.9453922632735221e-01 1.7994539226327269e+01
-1.9453922632735221e-01 1.7994539226327269e+01
-1.9453922632735221e-01 1.7994539226327269e+01
ITEM: ATOMS id type x y z
1 2 17.9114 17.7662 18.0587
2 1 1.54281 1.57917 17.7757
3 2 1.53497 17.97 1.48725
4 4 -0.0110842 1.75446 1.57687
5 3 3.39548 -0.0121363 0.065037
6 4 5.08165 1.8967 0.127389
7 4 5.45515 0.0227514 1.55873
8 3 3.57025 1.64652 2.10466
9 1 7.17562 0.225308 -0.0308021
10 1 9.20982 1.52423 -0.112412
11 1 9.00787 -0.06993 1.71255
12 1 7.34196 1.81087 1.68168
13 3 10.7917 -0.179506 18.003
14 2 12.5733 1.35199 18.0237
15 2 12.5244 17.8129 1.68377
16 2 10.7082 1.51675 1.67011
17 3 14.4241 -0.261817 17.9263
18 3 16.063 1.73787 17.8752
19 4 16.1911 0.0344911 1.40666
20 4 14.2048 1.78029 1.43279
21 4 18.0291 3.58508 -0.270667
22 1 1.72641 5.48606 -0.230894
23 2 1.75011 3.41409 1.49612
24 1 0.0775901 5.51329 1.62376
25 2 3.35344 3.30312 17.9666
26 3 5.03493 5.26665 -0.279479
27 3 5.20695 3.65614 1.61316
28 4 3.42192 5.33061 1.736
29 3 6.86772 3.46463 -0.0606634
30 2 8.82064 5.41292 17.9095
31 1 8.95857 3.52782 1.6516
32 4 7.21792 5.1544 1.55278
33 3 10.7142 3.41814 18.0618
34 4 12.7157 5.45361 -0.167311
35 4 12.3198 3.42296 1.84112
36 2 10.7561 5.06056 1.56632
37 3 14.4332 3.86469 -0.0288908
38 2 16.2622 5.46427 18.0835
39 4 16.2315 3.74952 1.45886
40 4 14.1645 5.55698 1.66086
41 2 -0.0703352 7.09782 -0.203079
42 3 1.52211 9.02931 18.0075
43 1 1.69404 7.25314 1.69231
44 2 17.9279 8.7411 1.52663
45 1 3.61065 7.20351 17.863
46 1 5.21661 8.76377 0.0422188
47 2 5.26425 7.0612 1.61655
48 1 3.45302 8.98382 1.66667
49 1 7.04292 7.06187 -0.157528
50 3 8.70214 9.13484 -0.0784033
51 4 8.70955 7.16271 1.65444
52 4 6.94189 9.08983 1.56181
53 4 10.7688 7.1083 17.8855
54 2 12.3772 9.0893 0.0196207
55 2 12.0489 7.24869 1.61123
56 1 10.6497 9.09637 1.66044
57 3 14.1873 7.28537 -0.136204
58 3 16.2407 8.72152 17.8046
59 4 16.2499 6.8862 1.63122
60 2 14.3186 8.98927 1.73153
61 1 -0.248989 10.7232 -0.180088
62 3 1.46762 12.4365 -0.114032
63 2 1.71179 10.4781 1.55245
64 3 17.8 12.392 1.76394
65 4 3.40934 10.6325 -0.269289
66 1 5.12488 12.5434 -0.178051
67 3 5.14354 10.8272 1.60479
68 3 3.41567 12.5416 1.70915
69 1 6.9554 10.7845 18.0218
70 4 9.11686 12.7245 17.9666
71 4 8.86164 10.6094 1.63792
72 4 7.20328 12.5017 1.33746
73 2 10.442 10.8409 17.927
74 1 12.5471 12.3473 -0.128453
75 1 12.5441 10.4878 1.77005
76 4 10.7652 12.6953 1.48116
77 2 14.3086 10.7771 -0.116203
78 1 15.9808 12.4659 17.7145
79 3 16.2223 10.5387 1.43487
80 4 14.4777 12.5528 1.55056
81 4 17.9703 14.3648 18.0841
82 3 1.67372 16.2498 -0.130096
83 1 1.682 14.5787 1.89201
84 4 -0.171866 16.0329 1.56539
85 4 3.27431 14.3365 18.0172
86 3 5.27689 16.4373 -0.0707702
87 4 5.07755 14.2497 1.44452
88 1 3.60727 16.2042 1.70621
89 3 6.93531 14.455 -0.143317
90 3 8.73523 16.4237 18.1181
91 2 8.97708 14.5863 1.57945
92 2 7.1517 16.3144 1.68761
93 4 10.8192 14.7501 17.9941
94 1 12.7098 16.252 -0.130349
95 1 12.6686 14.4728 1.72681
96 4 10.923 16.3166 1.46509
97 1 13.9669 14.1984 -0.11478
98 3 16.0885 16.2358 17.9345
99 3 16.1545 14.3984 1.49826
100 1 14.4125 16.3152 1.51168
101 4 -0.0641412 18.0628 3.19833
102 2 1.47585 1.63581 3.54598
103 3 1.70623 17.9383 5.12554
104 3 -0.104791 1.56388 5.30953
105 3 3.88866 17.8912 3.52099
106 3 5.47221 1.68084 3.66386
107 4 5.32949 17.9312 5.56684
108 2 3.48587 1.81024 4.87973
109 3 6.96791 17.8601 3.58964
110 3 8.78337 1.59915 3.58345
111 2 8.9062 17.7629 5.2685
112 4 7.07235 1.66061 5.5236
113 1 10.7126 -0.125701 3.66001
114 2 12.7229 1.45527 3.54745
115 4 12.6951 -0.0776021 5.22995
116 2 10.528 1.55959 5.13241
117 2 14.5522 0.0170245 3.5179
118 3 16.1735 1.78543 2.92852
119 2 16.1572 8.99044e-05 5.12426
120 1 14.5034 1.48514 5.2293
121 1 -0.259215 3.29836 3.35574
122 2 1.71557 5.3922 3.43493
123 3 1.4739 3.50955 5.19953
124 4 -0.194538 5.11594 5.248
125 2 3.3942 3.63304 3.24024
126 3 5.22496 5.30115 3.62687
127 1 5.27287 3.63255 5.62725
128 4 3.55626 5.26014 5.38854
129 1 7.19462 3.45026 3.58984
130 3 8.70951 5.28604 3.44503
131 2 8.76391 3.58715 5.34379
132 1 7.24322 5.37349 5.54323
133 1 10.8587 3.40202 3.60448
134 2 12.4679 5.26198 3.43408
135 1 12.601 3.42566 5.19285
136 1 10.7166 5.16378 5.24424
137 2 14.4088 3.57359 3.41295
138 4 16.3348 5.2339 3.55575
139 1 16.3979 3.40379 5.21365
140 1 14.2254 5.28075 5.07805
141 1 18.0088 7.21478 3.54045
142 4 1.3513 9.09459 3.30165
143 3 1.93406 7.0045 5.22165
144 3 -0.173121 9.06864 5.44021
145 4 3.42412 7.0129 3.41498
146 2 5.3407 9.21805 3.35624
147 2 5.38046 7.26096 5.29565
148 2 3.4177 8.90572 5.20334
149 1 7.00041 7.2434 3.45821
150 3 8.93092 8.53375 3.41805
151 2 9.07057 7.18244 5.47908
152 1 7.11155 9.09459 5.38461
153 1 10.8029 7.09272 3.65426
154 1 12.6572 8.61391 3.32983
155 2 12.4936 7.04132 5.02415
156 4 10.797 8.92425 5.28305
157 4 14.5423 7.27387 3.39039
158 3 16.275 9.07644 3.77036
159 1 15.9289 6.91996 5.4147
160 1 14.1414 8.69351 5.2269
161 4 17.8241 10.8853 3.46153
162 3 1.5187 12.5516 3.20495
163 2 1.6316 10.6421 5.26326
164 3 17.8945 12.6832 5.27971
165 2 3.26773 10.7527 3.52606
166 2 5.22016 12.8288 3.6482
167 2 5.26564 10.7061 5.19929
168 2 3.43617 12.3404 5.34787
169 4 7.07338 10.799 3.1007
170 2 8.96779 12.3526 3.46753
171 3 8.89168 10.3963 4.94482
172 2 7.35457 12.2826 5.11298
173 1 10.8212 10.677 3.36763
174 2 12.7079 12.461 3.19423
175 3 12.6752 10.6516 5.20265
176 2 10.6273 12.2493 5.15696
177 3 14.2853 10.725 3.26536
178 1 16.157 12.5443 3.31562
179 1 16.1547 10.7976 5.37554
180 3 14.4221 12.4653 5.17159
181 4 18.0215 14.5813 3.43564
182 1 1.50422 16.17 3.31366
183 1 1.6795 14.278 5.28408
184 4 17.911 16.1994 5.15235
185 1 3.49357 14.4652 3.37286
186 2 5.49779 15.9982 3.44385
187 1 5.07423 14.3727 5.31347
188 4 3.51963 16.0936 5.38405
189 2 7.16609 14.3793 3.36496
190 4 8.87508 16.2532 3.49712
191 1 8.77749 14.4868 5.43252
192 2 6.87691 16.0997 5.35608
193 2 10.9325 14.3192 3.33599
194 3 12.5311 16.27 3.43878
195 2 12.3914 13.8738 5.39858
196 4 10.7959 16.2649 5.30422
197 1 14.4679 14.4562 3.67636
198 1 16.1793 16.2029 3.46591
199 3 16.2433 14.3382 5.2207
200 2 14.3179 16.0783 5.15111
201 3 0.0932411 17.8125 6.98322
202 3 1.68186 1.76053 6.96337
203 4 1.83349 18.0526 9.02843
204 4 -0.0966181 1.59755 8.98172
205 3 3.36877 -0.208387 7.00896
206 4 5.3792 1.62677 7.13512
207 4 5.40286 17.8828 8.67227
208 1 3.66031 1.6081 9.05616
209 2 7.25467 -0.127136 7.24352
210 4 8.95392 1.69494 7.12822
211 3 8.78258 -0.111069 8.77539
212 2 6.92405 1.59432 8.86241
213 2 10.6772 -0.204932 6.98286
214 4 12.8393 1.4743 6.85841
215 2 12.7141 17.9281 8.46558
216 2 10.8788 1.56459 8.76277
217 2 14.3445 18.0263 6.9483
218 2 16.0729 1.81716 7.26664
219 2 15.9705 -0.0280912 8.79411
220 4 14.3456 1.57793 8.88696
221 4 18.0014 3.37754 6.94824
222 1 1.59054 5.18295 6.96985
223 4 1.67106 3.46095 9.14201
224 3 -0.185516 5.37186 8.79624
225 1 3.50064 3.50004 7.0712
226 2 5.20824 5.36569 7.45573
227 2 5.0685 3.38121 9.16263
228 3 3.44596 5.27902 9.16513
229 3 7.05162 3.76327 7.21021
230 4 9.09928 5.49598 7.21755
231 4 9.04793 3.19646 8.98539
232 3 6.97915 5.45242 9.14688
233 2 10.6153 3.398 6.96765
234 4 12.7068 5.15297 6.82311
235 3 12.6132 3.31471 8.69345
236 3 10.7822 5.22683 9.07886
237 4 14.3464 3.34584 7.16308
238 3 16.2261 5.29056 7.21638
239 4 16.1241 3.53739 8.88525
240 1 14.2832 5.27427 8.78844
241 1 -0.146095 7.24971 7.17526
242 1 1.59979 8.94399 7.10107
243 4 1.58732 7.17548 9.03117
244 3 -0.0893958 9.18108 9.06667
245 4 3.31161 7.12819 7.32118
246 1 5.27115 9.07644 7.05216
247 1 5.07148 7.05583 9.03882
248 1 3.53388 9.08008 8.94133
249 2 7.26174 7.17369 7.3784
250 3 8.87096 9.03737 7.15243
251 4 8.97692 7.04996 9.08848
252 3 7.11585 8.91744 9.25604
253 2 10.9559 7.22456 7.00314
254 2 12.6358 8.73872 7.1402
255 1 12.3583 6.91338 8.87502
256 4 10.802 8.75013 8.81056
257 2 14.1635 6.8618 6.93339
258 2 16.2345 8.97599 6.89324
259 3 16.3793 7.10255 9.02613
260 3 14.3199 8.60132 8.91562
261 4 18.0096 10.8349 7.0519
262 2 1.72722 12.6625 7.03088
263 3 1.71827 10.841 8.80616
264 2 17.861 12.3849 9.06613
265 4 3.40095 10.8304 7.05592
266 2 5.42723 12.4845 6.9862
267 4 5.21107 10.6763 9.29214
268 2 3.5485 12.2471 8.85966
269 2 7.0293 10.6999 7.20645
270 2 8.86759 12.1555 6.98491
271 3 8.69967 10.7607 9.0122
272 3 7.01951 12.5323 9.12154
273 2 10.9606 10.5357 7.19495
274 4 12.6374 12.3596 7.18345
275 4 12.5379 10.4897 9.12771
276 1 10.7061 12.5931 8.85213
277 4 14.1114 10.5527 7.00462
278 1 16.0408 12.2976 7.31966
279 1 16.1381 10.5336 8.93884
280 1 14.2133 12.2981 9.0254
281 1 17.8523 14.3555 7.24442
282 2 1.49759 16.0649 6.90589
283 2 1.66724 14.3812 8.85571
284 4 17.9032 16.0576 8.79042
285 4 3.47459 14.2479 7.32522
286 2 5.20974 16.2242 7.01245
287 4 5.19528 14.3365 8.63846
288 4 3.52056 16.178 8.61358
289 2 6.89438 14.315 6.89239
290 3 8.79568 15.9954 7.05514
291 2 8.96723 14.1233 8.85315
292 2 7.01523 15.6367 8.8116
293 2 10.7334 14.4406 6.95704
294 3 12.6996 16.0096 6.82221
295 4 12.7847 14.2614 8.80721
296 2 10.6386 15.9802 8.68348
297 4 14.231 14.2977 7.0426
298 3 16.3536 16.2825 7.04758
299 1 16.0484 14.1354 8.85039
300 4 14.4212 16.22 8.71959
301 3 -0.0486391 17.9581 10.6139
302 2 1.94038 1.6852 10.6335
303 3 1.69963 -0.0596307 12.3827
304 3 17.8156 1.67865 12.4152
305 2 3.57381 17.7635 10.578
306 2 5.29168 1.6993 10.8202
307 3 5.48176 -0.229458 12.7233
308 4 3.63382 1.68491 12.6373
309 4 7.02043 17.772 10.4971
310 3 8.698 1.35525 10.5024
311 3 8.94813 17.8837 12.5975
312 1 7.30082 1.55174 12.5297
313 3 10.8389 17.7934 10.6088
314 2 12.5974 1.36679 10.6401
315 1 12.607 17.6296 12.3834
316 4 10.8241 1.16311 12.521
317 4 14.3775 17.9518 10.597
318 1 16.1958 1.7553 10.3876
319 1 16.1971 -0.0227085 12.4341
320 4 14.1337 1.35013 12.5365
321 1 17.9441 3.46473 10.8199
322 1 1.66056 5.18997 10.7578
323 3 1.63312 3.28362 12.5683
324 3 17.8532 5.26859 12.6777
325 1 3.50665 3.31763 10.8342
326 1 5.13214 5.44509 11.03
327 4 5.31281 3.24859 12.5055
328 4 3.62636 5.16674 12.8195
329 4 6.80375 3.33755 10.8599
330 4 8.96856 5.06495 10.5931
331 3 9.30439 3.07745 12.5601
332 3 7.12421 5.22099 12.5335
333 4 10.8519 2.96597 10.6742
334 2 12.692 5.25876 10.9823
335 3 12.4861 3.14446 12.7016
336 2 10.8143 5.0249 12.3278
337 4 14.201 3.28875 10.5582
338 1 16.4093 5.31112 10.6764
339 4 16.0261 3.36441 12.3755
340 1 14.5616 5.24157 12.3978
341 3 -0.18663 7.18009 10.821
342 4 1.72548 8.98208 10.7865
343 3 1.68379 6.93562 12.7971
344 2 -0.235878 9.00893 12.2326
345 2 3.21053 7.19182 10.7218
346 1 5.17976 9.1489 11.1546
347 3 4.99499 7.01291 12.8311
348 1 3.56962 9.10309 12.7105
349 4 6.8498 7.33425 10.8267
350 3 8.92305 9.10278 10.8342
351 3 8.86478 6.99416 12.451
352 1 7.22507 8.89391 13.0323
353 2 10.7578 7.02623 10.774
354 1 12.4676 8.72885 10.6642
355 3 12.6652 7.2567 12.459
356 3 10.7668 9.04388 12.5813
357 1 14.3876 6.98368 10.7902
358 1 16.0311 8.93843 10.8521
359 4 16.1978 7.16849 12.4728
360 2 14.423 9.09267 12.3739
361 4 17.7548 10.7629 10.7865
362 2 1.67202 12.4577 11.0562
363 1 1.51077 10.7252 12.7855
364 1 -0.1268 12.3689 12.4851
365 3 3.34747 10.8485 10.8695
366 1 5.04847 12.5964 10.6845
367 1 5.4939 10.7678 12.7043
368 2 3.2757 12.3705 12.8031
369 1 6.89031 10.8221 11.0021
370 3 8.66171 12.5687 10.8804
371 4 8.65708 10.743 12.657
372 1 6.78137 12.6164 12.4776
373 3 10.7105 10.7215 10.6167
374 4 12.2713 12.4642 10.7162
375 4 12.5344 10.6505 12.2138
376 2 10.7187 12.7231 12.4649
377 4 14.3112 10.8586 10.5604
378 3 16.0242 12.6528 10.7472
379 2 16.0066 11.0903 12.5107
380 1 14.113 12.5013 12.3667
381 2 17.7898 14.1951 10.5706
382 2 1.58248 16.0143 10.7721
383 3 1.77969 14.3532 12.4479
384 3 -0.296906 16.2241 12.3748
385 2 3.62691 14.4892 10.5313
386 1 5.23533 16.0416 10.5045
387 3 5.03177 14.1948 12.5892
388 3 3.47048 16.2536 12.7248
389 4 6.9547 14.2776 10.7776
390 1 8.7117 16.1274 10.8549
391 3 8.80221 14.1411 12.6473
392 2 7.05823 16.1612 12.5647
393 4 10.5031 14.367 10.6205
394 2 12.4816 15.8892 10.4671
395 1 12.6147 14.5125 12.398
396 4 10.6849 16.0456 12.4191
397 4 14.3026 14.1699 10.5456
398 1 16.2597 16.1019 10.5566
399 2 16.0829 14.2123 12.508
400 2 14.3696 16.269 12.2207
401 1 17.8707 -0.0985181 14.1024
402 4 1.55023 1.42829 14.4615
403 1 1.54776 17.7924 16.1061
404 3 17.9593 1.52509 16.1559
405 3 3.49019 -0.189325 14.3247
406 3 5.31814 1.5967 14.4844
407 3 5.35311 17.995 16.0526
408 4 3.28224 1.36446 16.1838
409 4 7.04548 -0.18356 14.2099
410 4 8.99585 1.8909 14.4575
411 3 8.79318 0.0368203 16.2083
412 4 7.13071 1.71907 16.285
413 1 10.7057 17.8863 14.4753
414 1 12.3456 1.40178 14.2787
415 2 12.8307 17.96 16.1642
416 4 10.8598 1.61282 16.1427
417 2 14.3843 17.7687 14.193
418 4 15.897 1.66424 14.368
419 4 15.9906 17.6936 16.2366
420 2 14.4422 1.62597 16.1543
421 3 17.8501 3.63324 14.3337
422 3 1.76537 5.1528 14.096
423 1 1.4947 3.63411 16.0992
424 3 -0.150483 5.31566 16.3261
425 3 3.43226 3.38338 14.3638
426 4 5.3212 4.92431 14.4936
427 1 5.21672 3.07842 16.2861
428 4 3.53701 5.18596 16.2274
429 4 7.11026 3.23194 14.0156
430 4 9.11341 5.075 14.1743
431 2 8.80115 3.60814 16.0713
432 1 7.15524 5.14077 15.9948
433 3 10.9089 3.47785 14.408
434 2 12.7498 5.14214 14.2222
435 1 12.8227 3.27617 16.0973
436 3 10.8956 5.28972 16.2108
437 4 14.6233 3.48834 14.4496
438 2 16.092 5.57422 14.1618
439 1 16.2941 3.61089 16.1338
440 2 14.2376 5.36475 15.9924
441 1 -0.260208 7.0467 14.3931
442 3 1.72474 8.95857 14.668
443 2 1.69213 6.91596 16.0857
444 3 17.9441 9.1039 16.0334
445 1 3.58276 6.90122 14.6907
446 4 5.13777 8.67007 14.4871
447 1 5.41521 6.92266 16.1944
448 3 3.34634 8.89553 16.3199
449 3 7.31714 6.89642 14.5275
450 2 8.92943 9.05071 14.5477
451 1 8.54828 7.26881 16.3215
452 1 6.65397 8.91641 16.3659
453 3 10.7162 6.92245 14.2009
454 3 12.3811 9.23788 14.4551
455 2 12.9006 7.30008 16.0052
456 1 10.7189 8.89017 16.347
457 1 14.3059 7.1038 14.3257
458 3 16.2096 9.00693 14.156
459 2 16.0077 7.25288 15.875
460 4 14.4555 9.04377 15.8278
461 4 17.7994 11.0693 14.3335
462 1 1.65945 12.3901 14.595
463 2 1.47659 10.8851 16.1624
464 2 17.8999 12.6375 16.2013
465 4 3.5789 10.6727 14.3611
466 1 5.00356 12.6284 14.5255
467 3 5.12056 10.8001 16.1098
468 4 3.24733 12.5577 16.43
469 3 7.14065 10.645 14.5962
470 3 8.83412 12.5022 14.4155
471 1 8.87558 10.5693 16.06
472 3 7.24892 12.5361 16.2974
473 1 10.6258 10.925 14.2808
474 3 12.3386 12.7105 14.2305
475 2 12.294 10.5678 16.5096
476 4 10.6391 12.8304 16.1555
477 2 14.2262 10.9251 14.2399
478 1 16.1473 12.7894 14.481
479 2 16.0582 10.9042 16.2271
480 4 14.1734 12.5117 16.1181
481 4 -0.0131313 14.1336 14.0857
482 3 1.47909 16.003 14.2991
483 1 1.38542 14.402 16.317
484 1 17.9515 16.0534 16.2664
485 3 3.20224 14.3672 14.8186
486 1 5.24584 15.947 14.2688
487 3 5.52719 14.3348 16.2206
488 2 3.27405 16.1112 15.9799
489 2 7.1219 14.4576 14.5826
490 4 8.93746 16.1086 14.5583