ITEM: TIMESTEP
15000
ITEM: NUMBER OF ENTRIES
12
ITEM: BOX BOUNDS pp pp pp
0.0000000000000000e+00 8.5659000000000006e+01
0.0000000000000000e+00 8.5659000000000006e+01
0.0000000000000000e+00 8.5659000000000006e+01
ITEM: ENTRIES index c_fr[1] c_fr[2] c_fr[3] c_fr[4] c_fr[5]
1 82121 1 57.106 51.3954 42.8295 
2 85594 -1 47.1125 47.1125 49.9677 
3 87575 -1 48.5401 54.2507 51.3954 
4 89262 1 58.5337 49.9677 55.6783 
5 90989 -1 39.9742 45.6848 57.106 
6 91295 -1 48.5401 59.9613 57.106 
7 92674 2 47.8263 40.688 60.6751 
8 92794 -1 47.1125 47.1125 61.389 
9 93040 -1 55.6783 58.5337 61.389 
10 94714 -1 47.1125 52.823 64.2443 
11 98261 2 57.8198 49.2539 69.241 
12 101868 1 67.0996 49.9677 75.6655 
