ITEM: TIMESTEP
22000
ITEM: NUMBER OF ATOMS
2048
ITEM: BOX BOUNDS pp pp pp
-6.5224900738037661e-02 2.8545224900737676e+01
-6.5224900738037661e-02 2.8545224900737676e+01
-6.5224900738037661e-02 2.8545224900737676e+01
ITEM: ATOMS id type x y z
1 1 0.435786 28.0336 0.0231399
2 2 2.16519 1.10148 28.4438
3 2 2.24648 27.9135 1.67564
4 4 0.330497 1.1216 1.65893
5 2 3.90672 27.933 -0.140633
6 3 5.67608 1.03924 28.487
7 2 5.6485 27.9299 1.67832
8 2 4.04595 1.03365 1.77545
9 4 7.51724 27.8832 28.5678
10 4 9.28113 1.03602 28.5084
11 4 9.23539 27.9008 1.64163
12 1 7.48071 1.14887 1.63949
13 3 11.0541 27.9488 28.5625
14 4 12.6591 1.0813 28.4871
15 4 12.7575 27.8737 1.57834
16 1 11.0104 1.04723 1.66674
17 3 14.4967 27.9827 28.474
18 3 16.3898 1.14892 -0.049708
19 3 16.362 27.8716 1.6331
20 2 14.4808 1.04524 1.51781
21 3 18.1159 27.8377 -0.179784
22 4 19.815 1.11446 28.4746
23 2 20.0366 27.9102 1.68131
24 4 18.2527 1.13071 1.62547
25 1 21.8389 27.9397 28.4459
26 4 23.5335 1.10219 28.3437
27 4 23.4511 27.9532 1.64197
28 3 21.6671 1.21701 1.76868
29 1 25.1919 27.8579 28.2607
30 1 26.9841 0.985024 28.4789
31 2 27.1244 27.8739 1.5462
32 3 25.2721 1.00576 1.55913
33 4 0.386571 2.7096 28.3868
34 1 2.09954 4.70347 -0.0378966
35 4 2.14943 2.86395 1.53993
36 2 0.279646 4.52433 1.46018
37 4 3.89373 2.91636 28.4831
38 4 5.72452 4.71376 28.4781
39 4 5.79367 2.82348 1.68416
40 1 4.10054 4.72605 1.65584
41 1 7.48503 2.91212 28.4095
42 3 9.20929 4.67341 28.3672
43 3 9.0792 2.92688 1.55225
44 3 7.45959 4.70874 1.58682
45 4 10.9415 2.72025 28.3545
46 2 12.6747 4.7282 28.5117
47 3 12.7334 2.91435 1.58075
48 2 10.8353 4.6327 1.77073
49 2 14.6018 2.88157 28.6333
50 1 16.2145 4.74693 28.4433
51 4 16.3726 2.74489 1.7093
52 1 14.4852 4.78302 1.68173
53 3 18.2155 2.96896 28.53
54 3 20.0116 4.76466 28.4725
55 4 19.9798 3.02479 1.724
56 2 18.0669 4.84675 1.73934
57 4 21.6143 2.80183 -0.0789875
58 3 23.6021 4.67476 0.0584698
59 2 23.5769 2.80324 1.71953
60 3 21.7608 4.83668 1.75173
61 4 25.2676 2.92573 28.5928
62 1 27.1921 4.59676 28.4903
63 1 27.1422 2.85151 1.59436
64 1 25.2183 4.69216 1.77561
65 3 0.326485 6.41492 28.4771
66 3 2.26501 8.23213 28.4418
67 2 2.02209 6.43999 1.59601
68 2 0.208352 8.30626 1.48314
69 3 3.94612 6.50331 28.5581
70 3 5.70059 8.40949 28.5263
71 1 5.66193 6.60161 1.59564
72 3 3.95339 8.32124 1.72732
73 4 7.39436 6.59913 28.5925
74 4 9.25432 8.34959 28.4402
75 4 9.2856 6.52402 1.72246
76 1 7.41884 8.1795 1.67789
77 4 10.9927 6.67156 28.5624
78 3 12.74 8.48478 28.5518
79 3 12.8835 6.56904 1.65939
80 4 11.0286 8.34043 1.74948
81 1 14.3317 6.64358 28.4604
82 3 16.2173 8.40298 -0.09428
83 1 16.2137 6.64707 1.62578
84 2 14.3739 8.43067 1.72746
85 1 18.0856 6.45828 -0.138075
86 4 19.8312 8.12596 -0.0513343
87 1 19.8693 6.50147 1.70298
88 1 18.1255 8.18246 1.6191
89 4 21.7479 6.49073 -0.0199022
90 3 23.5279 8.18874 -0.0746149
91 4 23.5656 6.60565 1.77189
92 2 21.6455 8.24418 1.88783
93 1 25.3939 6.49222 28.4758
94 1 27.1465 8.3212 -0.174745
95 2 27.0659 6.24412 1.5833
96 3 25.4479 8.14522 1.67642
97 1 0.189559 10.1408 28.5343
98 1 1.94199 11.8141 -0.13307
99 4 2.09459 10.0031 1.70755
100 2 0.158345 11.8241 1.74284
101 3 3.87234 10.0972 28.4482
102 4 5.62023 11.7405 28.4276
103 2 5.65117 10.1733 1.60526
104 2 3.69515 11.7337 1.70725
105 3 7.46969 10.212 28.3663
106 3 9.29992 11.8105 28.3839
107 4 9.2852 10.1253 1.70208
108 3 7.49686 11.8356 1.53864
109 4 10.8944 10.1789 28.4054
110 2 12.6888 11.9254 28.5893
111 1 12.5956 10.1141 1.71542
112 3 10.8586 11.8703 1.74658
113 2 14.6351 10.3298 28.3126
114 2 16.4615 11.8514 28.5107
115 2 16.4969 10.0374 1.72828
116 1 14.6961 11.9752 1.76877
117 4 18.1096 10.1637 28.5684
118 3 19.9578 11.8806 -0.100006
119 2 19.8236 10.1449 1.91354
120 4 18.2008 11.8972 1.83342
121 3 21.6686 9.93495 28.284
122 3 23.5589 11.707 28.5393
123 2 23.6677 9.85308 1.84917
124 3 21.8791 11.62 1.61221
125 4 25.3342 9.88218 -0.09632
126 2 27.0876 11.8304 28.3707
127 3 26.9941 10.0138 1.62839
128 1 25.3729 11.9095 1.59497
129 3 0.157928 13.7206 -0.100007
130 3 2.25435 15.2412 -0.0227597
131 3 2.08057 13.6129 1.78135
132 2 0.268365 15.3184 1.68479
133 3 3.8637 13.479 28.7112
134 2 5.72811 15.315 28.4059
135 1 5.771 13.3969 1.8555
136 1 4.00131 15.342 1.70445
137 4 7.52772 13.4377 28.3925
138 3 9.18919 15.3852 28.3701
139 2 9.18528 13.6048 1.7073
140 1 7.36309 15.2985 1.62471
141 3 10.8636 13.6498 -0.164077
142 4 12.6528 15.3142 -0.0310197
143 4 12.8894 13.6219 1.67028
144 1 10.8789 15.4553 1.82447
145 2 14.8 13.5187 28.4476
146 3 16.4749 15.2728 28.3958
147 4 16.3263 13.6372 1.67759
148 1 14.6861 15.4065 1.58978
149 4 18.3385 13.6695 -0.180661
150 3 19.9252 15.5189 28.4841
151 1 20.0203 13.6396 1.67264
152 1 18.1382 15.3184 1.65202
153 4 21.7911 13.5202 28.5128
154 2 23.6197 15.2685 28.4873
155 2 23.6635 13.5009 1.54295
156 2 21.7221 15.4873 1.6486
157 1 25.1926 13.4559 28.522
158 1 26.9734 15.3419 -0.00722254
159 3 27.0852 13.4697 1.67656
160 3 25.272 15.4982 1.67814
161 2 0.32053 17.2313 0.0488165
162 1 2.0454 18.8851 28.5695
163 1 2.24492 17.1794 1.81308
164 4 0.289565 18.8812 1.81316
165 4 3.76316 17.2232 -0.0339808
166 2 5.63569 18.813 28.4658
167 3 5.54697 17.0841 1.76638
168 1 3.89334 18.9753 1.6733
169 4 7.34232 17.1036 -0.116629
170 1 9.44437 18.8868 28.461
171 2 9.16696 17.1741 1.71431
172 1 7.48618 19.0645 1.64167
173 2 10.8823 17.0314 0.00492026
174 3 12.7355 19.0355 28.6057
175 2 12.679 17.0917 1.76403
176 2 11.0532 18.9748 1.70842
177 1 14.5199 17.0883 28.42
178 2 16.35 19.0323 28.2971
179 3 16.3926 17.1836 1.60691
180 2 14.4959 19.0374 1.56367
181 2 18.1049 17.1966 28.4268
182 2 20.0558 18.9737 -0.0865932
183 4 19.8928 17.1907 1.66675
184 3 18.072 18.9134 1.76383
185 1 21.6952 17.2857 -0.191033
186 2 23.48 18.9741 -0.0742683
187 3 23.4118 17.1183 1.83614
188 3 21.5877 18.9571 1.85525
189 2 25.0325 17.2387 -0.0142671
190 2 27.0047 18.9301 -0.033713
191 4 27.1994 17.1702 1.66107
192 4 25.2673 18.8815 1.70517
193 1 0.289073 20.6276 28.4698
194 1 1.95554 22.3317 28.405
195 1 2.04032 20.6488 1.57803
196 2 0.161009 22.4669 1.6518
197 3 3.76548 20.651 28.6219
198 4 5.5206 22.5336 -0.0445983
199 4 5.59997 20.7722 1.63126
200 2 3.83105 22.5538 1.62984
201 1 7.31758 20.6115 28.5365
202 4 8.98234 22.5627 -0.0211762
203 3 9.25178 20.8086 1.58733
204 4 7.30341 22.4594 1.78153
205 4 11.088 20.8568 28.5155
206 2 12.8163 22.4592 0.00554094
207 2 12.8279 20.6822 1.7808
208 3 11.0582 22.6302 1.82896
209 1 14.5177 20.7248 28.4414
210 1 16.3995 22.5572 28.5862
211 3 16.1933 20.694 1.75719
212 1 14.6883 22.4777 1.66302
213 4 17.9645 20.7935 28.4235
214 1 20.0293 22.5668 28.4396
215 1 19.9287 20.7801 1.49221
216 3 17.9892 22.3855 1.61016
217 4 21.8855 20.7777 28.4409
218 2 23.6259 22.6257 28.4025
219 3 23.4805 20.6327 1.74314
220 3 21.834 22.4689 1.58713
221 2 25.4155 20.7225 -0.161214
222 3 27.1017 22.5844 28.4704
223 3 27.0811 20.7666 1.61753
224 1 25.3172 22.5804 1.64117
225 4 0.204625 24.3211 28.4907
226 1 2.06998 26.1529 -0.0859696
227 2 1.84058 24.3134 1.52607
228 4 0.22591 26.2446 1.79987
229 3 3.68621 24.3248 28.5215
230 2 5.70463 26.0766 0.0150254
231 1 5.59048 24.1963 1.70279
232 4 3.83386 26.2489 1.70656
233 1 7.2304 24.3255 28.5303
234 2 9.20576 26.0471 -0.152274
235 4 9.22357 24.2766 1.67415
236 2 7.51438 26.0633 1.72347
237 2 10.8772 24.3127 28.4965
238 4 12.7405 26.0536 -0.120597
239 3 12.7535 24.3451 1.76655
240 4 10.9639 26.0842 1.54709
241 3 14.582 24.3623 28.5723
242 4 16.5096 26.2018 28.4296
243 2 16.2426 24.4552 1.66851
244 4 14.3687 26.2011 1.5791
245 1 18.33 24.3575 28.5209
246 1 20.0165 26.1106 28.5193
247 2 19.879 24.2071 1.67578
248 3 18.1603 26.0344 1.62716
249 4 21.6843 24.2517 28.3788
250 4 23.4587 25.9606 28.3351
251 1 23.5271 24.4058 1.65903
252 2 21.7465 26.0845 1.68917
253 4 25.4266 24.3161 28.4518
254 2 27.0811 26.216 28.5079
255 1 27.0692 24.3525 1.69737
256 1 25.4482 26.1917 1.605
257 2 0.136275 27.9384 3.60775
258 4 2.13766 1.11369 3.40099
259 4 2.11179 28.0734 5.1375
260 3 0.208503 1.03612 5.31024
261 4 3.8789 28.0114 3.4356
262 1 5.65618 1.08815 3.64644
263 2 5.65227 27.7976 5.38663
264 1 3.88306 1.03586 5.20666
265 3 7.46112 27.9245 3.41435
266 2 9.19954 1.14572 3.39456
267 4 9.09031 27.9286 5.30083
268 2 7.49402 1.07289 5.26413
269 3 11.1295 27.9124 3.53819
270 2 12.7432 1.03034 3.33674
271 1 12.8253 27.6793 5.21701
272 1 11.1779 1.08288 5.19061
273 1 14.54 28.0442 3.51154
274 3 16.4794 1.09073 3.39529
275 2 16.3547 28.0036 5.12165
276 1 14.7669 1.12529 5.18526
277 4 18.1419 27.8911 3.43159
278 1 19.9997 1.23712 3.35561
279 4 19.7733 27.9091 5.18261
280 3 18.124 1.24993 5.18594
281 1 21.6972 27.7584 3.50622
282 1 23.431 1.0574 3.35695
283 1 23.5673 27.9686 5.18784
284 2 21.6431 1.16515 5.28623
285 2 25.2347 27.9038 3.48729
286 4 27.0169 0.980274 3.24282
287 3 26.9835 28.1423 5.22076
288 2 25.2358 1.18276 5.27618
289 1 0.306573 2.89961 3.48714
290 3 2.12462 4.54951 3.24988
291 2 2.09272 2.96139 5.3014
292 4 0.449188 4.57959 5.21584
293 3 3.97882 2.81128 3.26785
294 1 5.66895 4.71342 3.43639
295 4 5.57278 2.89103 5.21863
296 1 3.74959 4.72252 5.13624
297 2 7.58562 2.8573 3.44224
298 1 9.21519 4.59386 3.47413
299 3 9.22599 2.98371 5.32613
300 2 7.42597 4.59048 5.3658
301 3 11.1287 2.7557 3.49188
302 2 12.7625 4.69879 3.41512
303 3 12.8099 2.95843 5.18363
304 2 10.9242 4.54892 5.14292
305 1 14.5345 2.808 3.28659
306 4 16.2164 4.78057 3.38168
307 1 16.3831 3.03738 5.04373
308 2 14.5495 4.74949 5.18438
309 3 18.138 3.11595 3.38319
310 4 20.1172 4.80406 3.56149
311 1 19.9919 2.91454 5.35987
312 1 18.0692 4.74402 5.34532
313 1 21.7371 2.98745 3.48328
314 1 23.5129 4.52964 3.47729
315 1 23.5718 2.87367 5.24748
316 3 21.7741 4.67738 5.3308
317 4 25.4243 2.71328 3.34929
318 1 27.1041 4.55077 3.35924
319 3 27.1996 2.82533 5.41995
320 1 25.4484 4.66984 5.23745
321 3 0.336402 6.25143 3.37853
322 1 1.9492 8.42393 3.36708
323 1 2.09865 6.52706 5.22562
324 1 0.297518 8.31411 5.23496
325 2 3.72004 6.59284 3.43021
326 1 5.73868 8.45322 3.38178
327 2 5.52422 6.47156 5.23068
328 1 4.01078 8.3308 5.04891
329 4 7.45968 6.38884 3.60131
330 2 9.33369 8.26617 3.51474
331 3 9.17088 6.32902 5.15528
332 3 7.44071 8.36975 5.13703
333 4 10.9945 6.55299 3.57618
334 4 12.6102 8.47633 3.49771
335 4 12.6757 6.57018 5.36177
336 4 11.1327 8.28421 5.39551
337 1 14.3549 6.66808 3.5831
338 1 16.252 8.28174 3.59269
339 1 16.1895 6.32804 5.25623
340 4 14.523 8.36521 5.2404
341 2 18.0763 6.43501 3.63348
342 1 19.6927 8.29003 3.44272
343 1 19.781 6.55615 5.40989
344 3 17.9807 8.18372 5.41732
345 2 21.763 6.50307 3.57579
346 4 23.643 8.29428 3.54183
347 4 23.4701 6.3577 5.45479
348 4 21.5219 8.25735 5.14716
349 1 25.4244 6.50556 3.49965
350 4 27.2946 8.32635 3.42171
351 4 27.1645 6.50324 5.1432
352 2 25.459 8.22294 5.31484
353 2 0.316205 10.2268 3.6238
354 4 2.14431 11.8416 3.58357
355 2 2.08305 10.0786 5.17076
356 3 0.389945 11.9524 5.27515
357 2 3.89055 10.2635 3.62009
358 3 5.80365 11.881 3.74309
359 1 5.69292 10.1925 5.35407
360 1 3.97468 11.8989 5.52022
361 2 7.51895 10.1274 3.40136
362 2 9.06818 11.8281 3.53243
363 4 9.25431 10.1193 5.27596
364 4 7.54293 11.9872 5.33126
365 1 10.9177 10.123 3.5397
366 1 12.7408 11.9553 3.38218
367 4 12.8865 10.233 5.18946
368 2 11.0318 11.8571 5.1791
369 2 14.4108 10.1323 3.28947
370 3 16.3568 11.9652 3.44876
371 3 16.3291 10.1338 5.30846
372 1 14.8058 11.8997 5.33393
373 4 18.0413 10.0063 3.52728
374 4 20.0732 11.8061 3.57913
375 1 19.8477 10.0068 5.18552
376 2 18.1002 11.7802 5.29083
377 4 21.8533 10.0214 3.54835
378 2 23.5407 11.7574 3.44132
379 3 23.6662 9.9455 5.26421
380 4 21.9464 11.7566 5.24196
381 4 25.3815 9.94123 3.38969
382 3 27.1531 11.9049 3.63906
383 2 27.1175 10.2791 5.4776
384 4 25.3652 11.9438 5.37313
385 1 0.371607 13.5445 3.43583
386 2 2.31448 15.4429 3.35648
387 2 2.08038 13.7294 5.20386
388 1 0.384615 15.3358 5.2573
389 3 3.9262 13.4884 3.46622
390 4 5.67513 15.3982 3.52467
391 4 5.78898 13.5742 5.33895
392 1 4.02826 15.3684 5.29703
393 2 7.57411 13.546 3.50591
394 1 9.04624 15.5641 3.56952
395 1 9.33923 13.692 5.5231
396 4 7.51606 15.404 5.4328
397 1 10.8895 13.8327 3.46434
398 1 12.8692 15.2894 3.47285
399 2 12.7803 13.5341 5.27291
400 4 11.0079 15.3783 5.39762
401 1 14.6625 13.6171 3.54671
402 3 16.5255 15.2815 3.40184
403 1 16.6122 13.7802 5.33171
404 4 14.7696 15.4874 5.48243
405 4 18.1665 13.6954 3.52611
406 3 20.0358 15.6299 3.40946
407 1 20.0691 13.6816 5.14669
408 2 18.3458 15.442 5.31957
409 4 21.8464 13.6664 3.17262
410 4 23.5312 15.4385 3.44679
411 4 23.5538 13.6087 5.10041
412 4 21.9358 15.6004 5.15296
413 3 25.2286 13.6588 3.36207
414 4 27.0236 15.4442 3.33956
415 4 27.1524 13.6443 5.21521
416 2 25.4085 15.2608 5.22386
417 1 0.352119 17.0405 3.61715
418 3 2.04009 18.8773 3.47809
419 1 2.13042 17.1494 5.45532
420 4 0.290631 18.9382 5.05342
421 2 3.85974 17.241 3.52669
422 2 5.47978 18.9354 3.52866
423 2 5.82014 17.0475 5.28028
424 2 3.96677 18.8875 5.44964
425 4 7.43182 17.4604 3.43772
426 3 9.33231 18.9163 3.49703
427 3 9.37046 17.1729 5.39252
428 2 7.25821 19.0538 5.31388
429 4 11.1875 17.1399 3.75092
430 2 12.913 18.7947 3.48575
431 3 12.9401 17.242 5.52045
432 4 11.0284 19.0154 5.41339
433 1 14.6614 16.9918 3.50838
434 3 16.3258 18.7978 3.44714
435 3 16.5409 17.1412 5.28284
436 4 14.735 18.895 5.36885
437 4 18.1079 17.1181 3.46344
438 3 19.8984 18.915 3.52014
439 3 19.9964 17.3512 5.19476
440 4 18.2113 18.8958 5.34196
441 1 21.8343 17.1646 3.5097
442 2 23.5332 18.8424 3.40706
443 4 23.5836 17.2771 5.2406
444 1 21.7669 18.9364 5.14492
445 3 25.3108 17.2734 3.65334
446 1 27.159 18.9719 3.5168
447 1 27.1334 16.962 5.387
448 2 25.1814 19.0077 5.42676
449 4 0.310224 20.6493 3.36343
450 1 2.02373 22.4011 3.40538
451 3 2.00893 20.5696 5.31761
452 4 0.294326 22.5722 4.99446
453 3 3.84175 20.7897 3.30483
454 2 5.63216 22.5044 3.50364
455 3 5.49705 20.794 5.21195
456 1 3.65679 22.5603 5.319
457 1 7.51049 20.7849 3.45444
458 2 9.34148 22.4576 3.44954
459 3 9.25232 20.6343 5.18434
460 3 7.36061 22.4669 5.28097
461 4 11.0283 20.7154 3.5228
462 1 12.9477 22.5579 3.44455
463 4 12.773 20.7659 5.30164
464 3 11.0066 22.5049 5.28753
465 4 14.6318 20.716 3.5726
466 1 16.3338 22.5195 3.43675
467 4 16.3317 20.6348 5.37107
468 3 14.6593 22.6193 5.23074
469 2 18.1188 20.6802 3.5544
470 1 19.837 22.5285 3.31224
471 3 20.0111 20.6967 5.21749
472 2 18.3184 22.6445 5.14581
473 3 21.6118 20.793 3.5271
474 4 23.59 22.3819 3.40094
475 2 23.577 20.7774 5.18147
476 4 21.6834 22.4743 5.24573
477 4 25.2971 20.6594 3.44747
478 1 27.1099 22.4708 3.37799
479 2 27.0842 20.7031 5.23931
480 3 25.2777 22.7039 5.20854
481 4 0.162003 24.3248 3.417
482 1 2.09246 26.0749 3.41114
483 3 1.96661 24.4941 5.20031
484 3 0.354345 26.2118 5.30649
485 4 3.64699 24.2597 3.46213
486 3 5.59822 26.0074 3.36606
487 1 5.64778 24.382 5.2252
488 3 3.94299 26.1521 5.15875
489 1 7.41386 24.1513 3.53099
490 1 9.31094 26.01 3.46712
491 1 9.19555 24.3472 5.20871
492 3 7.41515 26.0316 5.23287
493 1 11.1472 24.3915 3.61087
494 2 12.7576 26.1573 3.33846
495 3 12.8631 24.3907 5.33825
496 2 10.8901 26.2123 5.28088
497 3 14.4605 24.3577 3.55831
498 3 16.4252 26.1376 3.28635
499 4 16.3708 24.1436 5.31492
500 3 14.7101 26.1101 5.15306
501 2 18.1361 24.355 3.40474
502 4 20.0272 26.1637 3.52617
503 1 19.9175 24.4305 5.24828
504 3 18.0551 26.1236 5.17276
505 1 21.7822 24.3467 3.43851
506 2 23.4393 26.1465 3.36177
507 4 23.3744 24.2603 5.03589
508 1 21.9002 26.1187 5.13915
509 4 25.0972 24.4693 3.34335
510 3 27.0722 26.1312 3.39872
511 2 27.1409 24.4693 5.13955
512 3 25.3057 26.0224 5.16905
513 3 0.304477 27.9518 7.02043
514 4 2.08798 0.957603 7.07478
515 1 2.10158 27.8903 8.78802
516 1 0.311753 1.11884 8.89143
517 1 3.80403 27.9663 6.98158
518 3 5.62481 1.1026 7.12166
519 1 5.75675 27.9393 8.85637
520 3 3.79566 1.03222 8.76402
521 4 7.57083 27.9542 7.20405
522 4 9.25289 1.08511 7.03349
523 3 9.27114 27.9578 8.82449
524 2 7.44826 1.18857 8.91774
525 4 11.0185 28.0323 6.87581
526 3 12.9796 1.07651 6.83892
527 1 12.9122 27.9908 8.58629
528 1 11.2662 1.23647 8.628
529 1 14.6969 27.8528 7.00578
530 4 16.3268 1.07353 6.84682
531 2 16.4157 27.9726 8.78997
532 3 14.7013 1.03225 8.73464
533 3 18.145 27.88 6.98769
534 3 19.9524 1.14894 7.07753
535 1 19.8872 27.9313 8.71171
536 4 18.2912 1.08603 8.82202
537 1 21.5599 27.6824 6.78232
538 4 23.475 1.02358 6.98493
539 3 23.4782 27.9862 8.75989
540 1 21.6983 1.15663 8.85861
541 2 25.2051 27.9275 6.87727
542 2 27.1281 0.990989 7.17741
543 2 27.0701 27.7765 8.795
544 2 25.2689 1.05299 8.80627
545 3 0.501788 2.98529 7.06609
546 3 1.99599 4.87918 6.93354
547 4 2.03824 2.88224 8.82862
548 2 0.399083 4.8274 8.84936
549 2 3.86384 2.88208 7.13993
550 2 5.82647 4.73818 7.05965
551 4 5.68535 2.91263 8.81086
552 1 3.64039 4.61753 8.71926
553 2 7.43258 2.76739 7.04556
554 3 9.2222 4.7001 7.08204
555 4 9.43759 2.79855 8.67497
556 2 7.50781 4.65057 8.81159
557 1 11.16 2.78565 6.85875
558 2 12.9349 4.75562 7.00317
559 3 13.0008 2.78022 8.73106
560 2 11.1613 4.57431 8.55968
561 1 14.6163 2.85195 6.93423
562 3 16.3741 4.57294 7.09236
563 2 16.5506 2.75949 9.02558
564 4 14.5996 4.52524 9.02625
565 4 18.1356 2.88877 6.99088
566 4 19.8217 4.72091 7.0395
567 2 19.8988 2.93229 8.83448
568 2 18.0896 4.71698 8.96948
569 1 21.6699 2.96668 6.99318
570 4 23.6473 4.6015 7.15472
571 4 23.5533 2.7907 8.87894
572 3 21.8234 4.50898 8.82459
573 3 25.4175 2.90243 6.9361
574 1 27.1757 4.65314 7.08762
575 4 27.2356 2.90654 8.84564
576 2 25.4089 4.69736 8.77342
577 2 0.208969 6.78162 7.07075
578 4 2.11727 8.16777 6.83338
579 1 2.04267 6.53158 8.85268
580 4 0.405666 8.18253 8.94175
581 3 3.83923 6.49791 7.03415
582 4 5.62486 8.25465 6.88358
583 2 5.54764 6.62121 8.70729
584 1 3.81846 8.35304 8.92048
585 2 7.49759 6.54019 7.09263
586 2 9.18306 8.34747 6.91858
587 3 9.20912 6.29129 8.88454
588 3 7.60338 8.23245 8.82112
589 3 10.9954 6.55108 7.02255
590 1 12.7284 8.26548 7.07258
591 2 12.8505 6.39993 8.94093
592 3 10.9491 8.15683 8.91353
593 1 14.5573 6.58165 6.91552
594 2 16.4224 8.18614 7.10635
595 4 16.1651 6.34063 8.92024
596 4 14.5795 8.23894 8.9174
597 1 17.9391 6.42056 7.10355
598 1 19.8506 8.32443 7.11059
599 4 19.8476 6.3719 8.77772
600 3 18.0589 8.21121 8.71749
601 3 21.5457 6.39229 7.17452
602 2 23.356 8.30999 6.99366
603 2 23.4944 6.43859 8.61006
604 1 21.8708 8.23668 8.77409
605 4 25.4082 6.3835 6.83223
606 4 27.0913 8.24511 7.00212
607 3 27.1136 6.51287 8.91075
608 4 25.2395 8.08965 8.70453
609 2 0.224637 9.96705 7.09088
610 4 2.08635 11.7601 7.06185
611 4 2.02871 10.108 8.7179
612 4 0.167955 11.8418 9.04144
613 2 3.94055 9.99501 7.10244
614 3 5.85122 11.724 7.18417
615 2 5.91882 9.84508 8.92032
616 2 3.92864 11.7219 8.75269
617 1 7.53724 10.0603 7.04271
618 4 9.29574 11.7343 7.28442
619 1 9.35364 10.0592 8.97066
620 3 7.59385 11.9513 8.94488
621 2 10.9955 10.1393 7.04617
622 3 12.8842 11.7751 6.95465
623 1 12.7016 10.1609 9.04028
624 2 11.0657 11.8673 8.95291
625 3 14.5273 9.90037 7.05842
626 4 16.4906 11.6511 7.07988
627 3 16.3179 10.0221 8.88105
628 2 14.645 11.8364 8.91473
629 1 18.2661 9.99471 6.97374
630 1 20.0894 11.7262 7.07267
631 1 20.2227 10.1112 8.76703
632 4 18.3093 11.6908 8.90144
633 2 21.8144 10.1151 6.95947
634 4 23.5403 11.8024 6.96487
635 4 23.641 10.099 8.81807
636 3 21.9706 11.8421 8.8707
637 4 25.3162 9.95701 6.98664
638 2 27.2359 11.988 7.25067
639 3 26.8846 10.1516 8.78085
640 3 25.3852 11.9383 8.93645
641 1 0.410221 13.6682 7.19913
642 3 2.12024 15.3547 7.19543
643 4 2.04981 13.707 8.88159
644 4 0.384452 15.3847 8.93938
645 3 4.01948 13.6513 7.09444
646 4 5.8101 15.2233 7.03306
647 4 5.82451 13.5339 8.89362
648 2 3.90124 15.427 8.9194
649 1 7.6973 13.6087 7.26215
650 3 9.31388 15.4839 7.28858
651 3 9.28193 13.6576 9.03161
652 2 7.52426 15.4766 9.05398
653 2 11.0505 13.5917 7.22706
654 1 12.84 15.2641 7.06861
655 3 12.7985 13.4054 8.95838
656 2 11.1246 15.4056 8.93592
657 4 14.6965 13.6132 7.22995
658 1 16.5749 15.4486 7.26082
659 3 16.5944 13.5206 8.70523
660 1 14.6642 15.2784 9.02142
661 1 18.4453 13.4947 7.16111
662 2 20.0856 15.4525 7.06919
663 1 20.099 13.5894 9.04105
664 4 18.1743 15.4155 9.07338
665 4 21.8761 13.5159 6.98123
666 4 23.7877 15.4953 6.92135
667 4 23.6134 13.6461 8.86174
668 2 21.7388 15.6371 9.03059
669 1 25.2522 13.7037 7.21373
670 4 27.1005 15.3907 7.21256
671 1 27.0725 13.6993 8.96953
672 4 25.4629 15.6278 8.90652
673 3 0.42329 17.1089 7.07029
674 2 1.90339 19.0291 7.00908
675 3 1.89027 17.1539 8.93843
676 2 0.19455 19.0292 8.78835
677 2 3.90357 16.9924 7.10162
678 3 5.62455 18.9189 6.9576
679 2 5.63453 17.0767 8.68887
680 2 3.77758 18.9947 8.6818
681 3 7.51558 17.1847 7.1181
682 4 9.16195 19.0088 7.04288
683 3 9.35373 17.2033 8.93725
684 3 7.45724 19.0057 8.92908
685 3 11.063 17.2634 7.12418
686 2 12.9629 19.0045 7.16521
687 3 12.9306 17.1803 8.73626
688 1 11.103 19.0158 8.91145
689 2 14.7678 17.1281 7.15215
690 1 16.4933 18.7489 7.08576
691 1 16.5312 17.0922 8.95545
692 1 14.7029 18.9435 8.91783
693 4 18.3659 17.2428 7.12588
694 1 20.109 19.0379 7.06149
695 4 20.0328 17.1661 8.93409
696 3 18.1806 19.07 8.77677
697 1 21.8819 17.2755 6.95914
698 4 23.6104 18.9368 7.20344
699 4 23.7156 17.2139 8.96767
700 3 21.812 18.8807 8.86764
701 1 25.3862 17.3998 7.22522
702 1 27.2922 18.9211 6.90329
703 3 27.3103 17.1791 8.7877
704 4 25.2697 19.1217 8.96267
705 2 0.229067 20.7471 6.95131
706 3 1.95171 22.4896 7.04917
707 1 2.06016 20.7825 8.73967
708 4 0.295221 22.5685 8.80168
709 2 3.92917 20.8014 6.96529
710 2 5.52535 22.5742 6.92431
711 4 5.53717 20.6914 8.86162
712 3 3.68279 22.4846 8.75393
713 3 7.23644 20.7594 7.0786
714 2 9.13898 22.4173 6.95557
715 4 9.03897 20.8561 8.80505
716 2 7.30038 22.5183 8.95474
717 1 10.9246 20.6108 7.0946
718 2 12.9954 22.7126 6.99993
719 1 12.8263 20.9036 8.88352
720 2 10.8369 22.4009 8.6962
721 2 14.7839 20.6586 7.08699
722 4 16.4264 22.4872 7.15648
723 1 16.4556 20.8624 8.89845
724 1 14.5647 22.5721 8.72293
725 2 18.1731 20.7161 7.02196
726 3 19.9449 22.5845 7.0036
727 1 20.1551 20.8728 8.85098
728 1 18.1811 22.5728 8.84551
729 2 21.8009 20.8365 7.17814
730 1 23.4202 22.6455 7.00222
731 3 23.4916 20.8547 8.91483
732 4 21.7999 22.6481 8.87809
733 1 25.1609 20.8916 7.00831
734 1 27.0392 22.7653 6.91377
735 3 27.0641 20.9557 8.65823
736 2 25.2551 22.5375 8.79904
737 2 0.313316 24.3052 7.07296
738 4 2.04448 26.3308 7.05084
739 2 2.0567 24.4341 8.91136
740 3 0.289019 26.1695 8.63217
741 3 3.70803 24.3449 7.02111
742 4 5.62636 26.0556 7.03841
743 3 5.53059 24.2177 8.77026
744 3 3.82992 26.13 8.71904
745 4 7.40684 24.3884 7.00398
746 1 9.18669 26.1532 6.99113
747 1 9.03172 24.1815 8.6819
748 4 7.42442 25.9998 8.67095
749 2 11.0934 24.2132 7.15278
750 3 12.7251 26.1031 7.0402
751 4 12.8048 24.2418 8.88805
752 4 11.0319 26.072 8.92047
753 3 14.8 24.4957 6.97259
754 4 16.5071 26.2239 7.13142
755 4 16.4983 24.4927 8.91869
756 3 14.5117 26.0917 8.92008
757 4 18.1494 24.2236 7.082
758 1 19.8469 26.1558 6.91307
759 4 20.0408 24.3542 8.76676
760 3 18.2085 26.0483 8.71949
761 3 21.6523 24.448 6.96398
762 1 23.424 26.0788 7.04536
763 1 23.5247 24.3499 8.85237
764 3 21.6757 26.2041 8.63167
765 1 25.2746 24.3358 7.13262
766 4 26.9864 26.2845 6.96928
767 2 27.1465 24.3759 8.80698
768 4 25.3214 26.141 8.74078
769 1 0.208386 27.9322 10.5769
770 2 2.20322 1.12247 10.514
771 2 2.15778 28.0068 12.4298
772 2 0.394249 1.03861 12.3037
773 3 3.85062 27.8429 10.4688
774 2 5.66922 1.02579 10.4199
775 1 5.58025 27.9737 12.3059
776 3 3.89077 1.00165 12.2307
777 2 7.45484 27.9463 10.4694
778 2 9.37161 1.16587 10.477
779 4 9.12049 27.9974 12.2856
780 3 7.53372 1.13883 12.2954
781 2 11.1176 27.9011 10.5582
782 3 12.8498 0.980972 10.5397
783 4 12.7356 27.9263 12.4218
784 1 11.0905 1.11893 12.3849
785 4 14.6373 27.8958 10.566
786 3 16.4518 1.0043 10.735
787 2 16.2626 27.8881 12.4103
788 3 14.5743 1.07631 12.4554
789 1 18.2514 27.974 10.5877
790 1 19.9593 1.20058 10.5383
791 4 20.0788 27.8622 12.5504
792 4 18.3006 1.03617 12.4028
793 2 21.7936 27.7681 10.4755
794 2 23.479 0.963988 10.6049
795 4 23.5966 27.7926 12.3667
796 3 21.8776 1.14091 12.3168
797 1 25.3489 27.9636 10.5729
798 4 27.1353 1.04864 10.7294
799 2 27.0634 27.9436 12.4521
800 4 25.2043 1.02891 12.4712
801 4 0.218651 2.79697 10.7702
802 4 2.05097 4.51163 10.6733
803 1 2.16075 2.83248 12.4299
804 1 0.186918 4.67808 12.3263
805 4 3.80842 3.0035 10.5111
806 4 5.69791 4.74125 10.3397
807 2 5.68851 2.84979 12.3435
808 2 4.01658 4.58575 12.349
809 4 7.47599 2.93589 10.6321
810 1 9.29974 4.65049 10.6883
811 1 9.21812 2.84382 12.4603
812 1 7.53713 4.60684 12.3898
813 1 11.0318 2.77919 10.5715
814 1 12.7405 4.52952 10.6331
815 1 12.7644 2.62839 12.4234
816 2 11.0487 4.59114 12.3024
817 3 14.591 2.70126 10.6815
818 1 16.4602 4.68931 10.7229
819 2 16.2661 2.68684 12.4698
820 3 14.6093 4.38888 12.3536
821 4 18.2796 2.97132 10.7681
822 1 19.908 4.83392 10.7427
823 2 19.9758 3.01113 12.4787
824 1 18.0965 4.57153 12.5222
825 1 21.857 3.03496 10.6369
826 2 23.5849 4.75519 10.7313
827 2 23.4699 2.91404 12.414
828 1 21.7365 4.62114 12.3442
829 1 25.2605 2.83304 10.5553
830 4 27.1059 4.63035 10.6123
831 4 27.1291 2.9801 12.4104
832 4 25.3246 4.73561 12.4891
833 2 0.348347 6.54007 10.5498
834 3 2.10567 8.3957 10.6774
835 2 2.00465 6.50565 12.4071
836 1 0.235638 8.13511 12.4058
837 1 3.8114 6.50207 10.5999
838 1 5.71461 8.2511 10.754
839 4 5.82012 6.31208 12.25
840 2 3.85159 8.12296 12.4035
841 1 7.5483 6.48591 10.6252
842 1 9.12446 8.22961 10.7519
843 3 9.40929 6.48022 12.4593
844 4 7.4592 8.1887 12.5557
845 1 11.0435 6.35949 10.5343
846 3 12.7117 8.31073 10.6456
847 2 12.753 6.39143 12.3367
848 2 10.976 8.18933 12.3997
849 3 14.3957 6.38035 10.701
850 4 16.4384 8.05228 10.6244
851 2 16.2713 6.32831 12.5272
852 3 14.6509 8.16141 12.4155
853 3 18.0623 6.48377 10.5862
854 1 19.8503 8.15821 10.6816
855 4 20.072 6.48444 12.293
856 3 18.1712 8.3299 12.4428
857 2 21.6921 6.36237 10.5019
858 1 23.5798 8.10345 10.798
859 3 23.4724 6.37746 12.5082
860 2 21.6156 8.1385 12.4719
861 4 25.3505 6.34619 10.6827
862 1 27.1202 8.43015 10.5903
863 3 27.0602 6.51547 12.4089
864 1 25.1236 8.03265 12.4571
865 2 0.443668 10.0752 10.6106
866 3 2.08086 11.8271 10.6332
867 3 2.10846 10.0135 12.4684
868 3 0.471393 11.8047 12.5071
869 3 3.83636 10.0445 10.6739
870 2 5.83475 11.8249 10.7459
871 2 5.63615 10.0231 12.5839
872 3 3.85099 11.9369 12.3829
873 2 7.50111 10.1172 10.6372
874 4 9.40388 11.7653 10.6751
875 4 9.32175 9.88617 12.5454
876 2 7.54783 11.8053 12.4047
877 4 11.0214 10.014 10.6876
878 3 12.8786 11.8422 10.6933
879 2 12.7702 10.0346 12.4294
880 4 10.9432 11.6857 12.4911
881 1 14.6347 9.9369 10.6205
882 2 16.5252 11.8186 10.5911
883 3 16.4379 10.083 12.2616
884 2 14.796 11.7638 12.4989
885 3 18.2979 9.92425 10.5383
886 3 20.0462 11.8207 10.4553
887 2 20.0075 9.96435 12.415
888 1 18.1658 11.7439 12.2652
889 2 21.757 9.94416 10.6891
890 4 23.7335 11.9079 10.569
891 2 23.3753 9.95043 12.361
892 1 21.8667 11.9743 12.2616
893 2 25.3298 9.83191 10.7104
894 3 27.1494 11.7725 10.7711
895 3 27.2709 9.95147 12.485
896 2 25.3333 11.983 12.293
897 2 0.316797 13.734 10.578
898 4 2.20415 15.3816 10.5026
899 3 2.19186 13.6606 12.3687
900 2 0.477517 15.5622 12.5666
901 4 3.93132 13.6655 10.5056
902 4 5.72596 15.2867 10.7545
903 1 5.68798 13.585 12.2845
904 4 3.9311 15.4222 12.4283
905 3 7.58476 13.4911 10.7558
906 4 9.30271 15.3273 10.7781
907 4 9.21134 13.5744 12.4995
908 2 7.46405 15.3871 12.413
909 1 11.0427 13.5717 10.8522
910 3 12.8206 15.36 10.6277
911 2 12.7322 13.6038 12.4767
912 4 11.1326 15.4038 12.5801
913 1 14.7172 13.5678 10.7703
914 2 16.4214 15.2716 10.7601
915 2 16.4786 13.5402 12.3464
916 1 14.5553 15.4447 12.4041
917 4 18.2167 13.5286 10.5594
918 3 20.0838 15.4974 10.826
919 1 20.036 13.5566 12.2447
920 3 18.1221 15.3424 12.2497
921 3 21.9306 13.6236 10.6457
922 4 23.6051 15.3467 10.8037
923 1 23.6554 13.5826 12.5086
924 2 21.9082 15.2957 12.4972
925 4 25.4249 13.6965 10.7409
926 2 27.0139 15.4803 10.7394
927 2 27.0804 13.7076 12.4275
928 1 25.3271 15.5585 12.4186
929 3 0.257069 17.1357 10.6676
930 4 1.9696 19.0952 10.5623
931 2 2.14564 17.4092 12.3423
932 2 0.304643 19.1105 12.2679
933 2 3.76854 17.2753 10.5819
934 3 5.66108 18.925 10.5969
935 1 5.76372 17.1871 12.3436
936 3 3.93434 19.0228 12.2864
937 2 7.49647 17.3028 10.6424
938 3 9.2546 19.0265 10.6327
939 3 9.29878 17.2474 12.4012
940 2 7.40338 18.9621 12.4244
941 1 11.0869 17.0727 10.5656
942 3 12.839 19.0056 10.5064
943 1 12.7777 17.2273 12.4023
944 2 11.0818 18.9952 12.4166
945 3 14.5307 17.2725 10.625
946 4 16.4806 19.1846 10.4854
947 1 16.3499 17.3218 12.2234
948 1 14.5793 19.0637 12.3874
949 2 18.1659 17.3593 10.613
950 2 19.8911 19.0484 10.4556
951 4 20.0303 17.3195 12.4241
952 2 18.1297 19.1324 12.4184
953 4 21.854 17.1851 10.7941
954 1 23.613 18.9625 10.59
955 1 23.6325 17.203 12.3742
956 3 21.9222 19.1639 12.4367
957 1 25.4072 17.2012 10.7105
958 2 27.094 19.1077 10.665
959 4 27.086 17.4777 12.4745
960 2 25.2461 19.1824 12.364
961 4 0.208604 20.8668 10.6081
962 2 1.98301 22.4016 10.5636
963 1 2.05913 20.9278 12.3517
964 2 0.431721 22.6475 12.5411
965 1 3.76143 20.712 10.6077
966 4 5.54492 22.4932 10.6129
967 1 5.56727 20.7515 12.3634
968 3 3.84691 22.6298 12.2919
969 2 7.49529 20.7233 10.6536
970 1 8.9809 22.6315 10.6749
971 3 9.35856 20.8259 12.3868
972 4 7.41673 22.5121 12.454
973 3 10.9567 20.7472 10.4751
974 4 12.7014 22.388 10.6643
975 4 12.6533 20.7829 12.398
976 4 10.9283 22.7814 12.3181
977 1 14.5811 20.9117 10.5948
978 1 16.4672 22.4861 10.6409
979 3 16.3708 20.7692 12.3366
980 4 14.4994 22.5533 12.3869
981 1 18.421 20.9653 10.7654
982 4 20.1073 22.6057 10.7303
983 2 19.9894 20.785 12.5549
984 4 18.263 22.6573 12.5156
985 1 21.8588 20.8801 10.62
986 3 23.6121 22.5257 10.7308
987 2 23.5034 20.8413 12.4349
988 3 21.8984 22.6952 12.4637
989 1 25.4539 20.9336 10.6262
990 3 27.2409 22.6319 10.5826
991 1 27.2133 20.9545 12.3682
992 4 25.3828 22.63 12.3557
993 4 0.225367 24.6565 10.5901
994 3 2.04148 26.2624 10.5739
995 2 2.05548 24.4294 12.3554
996 4 0.399788 26.2494 12.5218
997 2 3.80031 24.2692 10.5354
998 3 5.74402 26.0571 10.349
999 1 5.59073 24.4244 12.4661
1000 4 3.93246 26.1266 12.2229