LAMMPS data file via write_data, version 30 Mar 2026, timestep = 14000, units = metal

500 atoms
4 atom types

-0.21051495216983618 18.010514952169803 xlo xhi
-0.21051495216983618 18.010514952169803 ylo yhi
-0.21051495216983618 18.010514952169803 zlo zhi

Masses

1 58.933
2 51.96
3 55.847
4 58.69

Atoms # atomic

3 4 1.6005286802780967 -0.12804913363333598 2.228146845481237 0 0 0
2 3 1.5691809530629015 2.0260111029284307 0.4984400846849829 0 0 0
8 1 3.2314901828690243 1.9997041688859896 2.2425754770247663 0 0 0
6 2 5.017888053194968 1.9189439439514895 0.4878513231532349 0 0 0
9 4 6.991064059092663 0.2207670736746633 0.37219055637237064 0 0 0
7 3 5.0986432137124025 0.08368379928801023 2.168909837546981 0 0 0
12 3 7.154172746400812 2.0269788174401198 2.116414801502028 0 0 0
10 3 9.148491447606183 1.5625042666082694 0.23975645443439175 0 0 0
11 1 8.563424309201368 0.17719044402876238 2.224593302280516 0 0 0
16 4 10.57550009874941 1.7471507336888832 2.1998925105955847 0 0 0
13 3 10.699518611814542 18.005956402002802 -0.06176285127402853 0 -1 0
14 3 12.270434791466604 1.895453757407335 -0.10164708967885337 0 0 0
15 3 12.36152333048519 0.2674537179896835 2.033060503394974 0 0 0
20 4 13.99530373721177 2.09788394205323 2.162378610095476 0 0 0
17 4 13.915230066246384 0.174701978970199 0.24332057544898067 0 0 0
1 3 17.771639760977884 0.3219977664573723 0.2375981137699676 -1 0 0
4 3 0.022452059161398252 2.187340484880558 2.2796223523355112 0 0 0
18 2 15.842335165096118 2.0760723531964786 0.40571877013804025 0 0 0
19 2 15.861658115024019 0.10403151598865074 1.7739879300508203 0 0 0
23 3 1.658436630056846 4.019178579839496 2.308421366199986 0 0 0
22 2 1.4436681098628408 5.738641594601416 0.0689889200213637 0 0 0
43 2 1.5926026282037622 7.319744791587549 2.3333777984408925 0 0 0
25 2 3.02019098182751 3.676455885622718 0.3061467420072135 0 0 0
27 2 5.102095323887219 3.949674937173895 2.1233834358265007 0 0 0
28 4 3.4256539319486223 5.736639587487393 2.2215630841017107 0 0 0
26 2 5.010448090263921 5.4136755922017 -0.040872552885413055 0 0 0
32 2 7.190376685186602 5.351570967618372 2.060935344162114 0 0 0
29 4 6.986765022941646 3.4346751434252005 0.1829481770341761 0 0 0
31 1 8.662255967652223 3.846506556172182 1.9879000606279993 0 0 0
30 1 8.540080268237825 5.485553440090018 0.28885049180690364 0 0 0
36 3 10.534257316920106 5.495096498159326 2.0096570541522327 0 0 0
33 3 10.657356511915975 3.7425864953246295 -0.00790679196159605 0 0 0
35 3 11.989519080520408 3.385634560181137 1.8424602510060009 0 0 0
34 1 12.65046834945161 5.825695266613326 0.17516703406857853 0 0 0
24 1 -0.1992493670563391 5.672923726284379 2.103032785681522 0 0 0
40 2 14.150394036218835 5.651491828223542 2.020356191364161 0 0 0
37 4 14.210863707861657 3.8348323535011204 0.23264750204901724 0 0 0
21 2 17.89406336521126 3.6717162297194204 0.447059793234038 -1 0 0
39 4 16.025693910207004 3.707638188382462 2.264167771364929 0 0 0
38 3 16.147208894032836 5.778643148328055 0.4386389786224181 0 0 0
42 3 1.4439767005162731 8.91826246003137 0.2733784150519404 0 0 0
48 1 3.191671856445401 9.231859828552672 2.0079538637314993 0 0 0
45 2 3.241248326212352 7.4365052423195035 0.206111813215046 0 0 0
47 4 5.105300772077683 7.5686484866637 1.9304789542542724 0 0 0
52 3 7.039571962973971 9.384590182070081 2.0393204145306147 0 0 0
49 4 6.760343580437487 7.285810406535087 0.3090967468581016 0 0 0
46 4 5.300242214035413 9.366399697291698 0.20557677636110244 0 0 0
53 3 10.446870729619382 7.665543532324446 0.34352169715447023 0 0 0
51 3 8.691907187584029 7.356974957830808 2.062172888006343 0 0 0
50 2 8.53094617657431 9.37221497677589 0.10872346186079135 0 0 0
56 1 10.76598123938113 9.222633837002943 2.3023877009040254 0 0 0
55 1 12.385855451072247 7.066080338094158 2.1793486641394697 0 0 0
54 4 12.350122806808567 9.100802729243831 0.4057335545062031 0 0 0
60 1 14.222931208795991 9.259482063237133 2.104974322303021 0 0 0
57 4 14.163568468462127 7.539573104938194 0.3566400257598791 0 0 0
75 1 12.660276407069667 11.07684434197066 2.2982421899350736 0 0 0
44 1 17.930630400659304 9.17961369033831 2.1696187646804574 -1 0 0
41 2 17.738219664210312 7.530250168874887 0.04527880873549345 -1 0 0
59 1 16.2664661856208 7.2770555082113235 2.3179170024164106 0 0 0
58 1 15.903936430799872 9.322142452885538 0.14188166146128173 0 0 0
77 3 13.895439608943018 10.978226673490886 0.34365865584206534 0 0 0
63 3 1.5223444164101547 10.872812754428585 2.091516305919261 0 0 0
62 1 1.451885374230945 12.938757156866856 0.3140107588769818 0 0 0
65 1 3.2763794207952155 10.860245854481278 0.1844094503749219 0 0 0
68 4 3.198723448805053 12.757602029872594 1.9101376233123055 0 0 0
61 3 18.003041323684336 10.626380899037914 0.4640727096148819 -1 0 0
67 1 5.0382801899343646 10.915497943615271 2.1507900356423555 0 0 0
66 2 4.983879877076377 12.72895341457491 0.4336764112793735 0 0 0
69 2 6.90452399818537 10.995967602864155 0.1413555467826803 0 0 0
72 2 6.924808723278435 12.486247961629548 2.0892468848910988 0 0 0
71 3 9.184695410127212 10.98480270800732 2.122243574301965 0 0 0
70 2 8.84637948966367 12.834345714321659 0.2515806185791631 0 0 0
73 2 10.784802411482787 10.885599730425769 0.38598818844964033 0 0 0
76 3 10.740357434810843 12.784007506049942 2.1699717700396404 0 0 0
74 3 12.605715189576506 13.006529013321105 0.3671307769890655 0 0 0
80 2 14.382378240377882 12.92810204431978 2.185122052998091 0 0 0
64 1 17.947184661949187 12.786090469946792 2.0638085767134515 -1 0 0
79 1 16.11748654023861 11.1782539331486 1.9759979605529567 0 0 0
78 1 16.103032387334657 12.971341990501427 0.2819989026665375 0 0 0
5 4 3.2271706116400543 0.14638343659160719 0.47702277616646815 0 0 0
83 3 1.33624843251354 14.678559518082333 2.1973110797290007 0 0 0
82 1 1.3799868098055534 16.29947023821289 0.32721202175466135 0 0 0
88 1 3.456029687287391 16.390825930077774 1.889575845934675 0 0 0
85 1 3.2351003158050373 14.82618372661435 0.28463654333807253 0 0 0
89 2 6.781834553754784 14.612859995486321 0.15605026749884077 0 0 0
87 3 5.08910271745062 14.80358704769837 1.992415841424482 0 0 0
86 3 5.256011054992739 16.81108207960868 0.4357044648429613 0 0 0
92 1 7.061821720726968 16.709597632900355 2.2390055260162285 0 0 0
91 2 8.753250344966654 14.61029202117422 2.2508897171332722 0 0 0
90 2 8.837299609600029 16.60987518588049 0.13193302536071355 0 0 0
96 2 10.72074490049869 16.527658153034302 2.2527586165601883 0 0 0
93 2 10.632453355948062 14.852538793069177 0.38591052919221003 0 0 0
95 4 12.379515335080518 14.82051849090349 2.067257083245061 0 0 0
94 1 12.643780787734755 16.342452748488036 17.93887113709031 0 0 -1
100 4 13.955212894976524 16.511514674989527 1.9265056988290055 0 0 0
81 4 17.718487815255422 14.858592627608777 0.35622779445423935 -1 0 0
84 3 17.905466362849467 16.686541521044717 1.9703223098873845 -1 0 0
99 2 15.971661373213225 14.722771502488122 2.2156301355781713 0 0 0
98 1 15.81262995980868 16.444949171860102 0.3070641602603067 0 0 0
102 3 1.7710206720063828 1.9004297121840437 4.03818525331798 0 0 0
103 2 1.687486053889078 0.016325415960810108 5.834807385270555 0 0 0
108 3 3.6074120349636405 1.9209129634916984 5.72897112547938 0 0 0
105 2 3.394152272103826 -0.03653558486908176 4.020832256434011 0 0 0
106 4 5.1962831181670435 2.0413301782693307 4.0045509830793575 0 0 0
107 4 5.225736326770237 0.13247618222525243 5.699903483607311 0 0 0
112 4 6.893332605496428 1.6828625839374938 5.775772626342563 0 0 0
127 2 5.164463353718855 4.241459508112966 5.974749824474168 0 0 0
109 4 6.882990433168479 0.14455791373095628 4.016780261783056 0 0 0
110 1 8.71912141466781 2.041770229663334 3.8533799850850796 0 0 0
111 3 8.847423465573806 0.1221316956039093 5.822115709519092 0 0 0
113 3 10.637645229859604 -0.08697075280529773 3.9642617916311877 0 0 0
116 2 10.680668734050421 1.8929517873085668 5.891104631313996 0 0 0
114 1 12.164920196973908 2.16465246796149 4.0819566608694275 0 0 0
115 4 12.2966936604438 0.14643842264536505 5.859838258669671 0 0 0
117 4 14.231286979780181 0.4912835869975968 3.8617064010868374 0 0 0
120 4 13.891746931191655 1.7953175689795189 5.862187638626397 0 0 0
104 2 -0.14941834518727354 1.9214093315478276 5.735500574609151 0 0 0
101 2 -0.12896252176886824 0.13955552002443122 4.0071270328995645 0 0 0
118 2 16.196549949431223 1.8222832140665761 4.038480810246429 0 0 0
119 4 16.247107714680496 0.20382375876900927 5.841788311596189 0 0 0
122 1 1.4095624861850122 5.597645213405621 4.0091342885296655 0 0 0
123 4 1.5957840003416297 4.105354467157823 5.71189582278339 0 0 0
128 1 3.4612691729091494 5.779100652587419 6.01910663571614 0 0 0
125 3 3.338775624027554 4.131248066508701 4.168995121182769 0 0 0
121 4 17.70482272941775 3.9406619681026855 3.9574079377570586 -1 0 0
145 1 3.381185540910564 7.304166966624739 4.173315478801702 0 0 0
126 3 5.502848825350221 6.064165137741792 4.2609988229418665 0 0 0
132 1 7.1699979521845565 5.727220306035443 5.690072980485871 0 0 0
129 3 6.816855229926984 3.857540771826814 3.8476563499043372 0 0 0
226 4 5.351052293109011 5.714981783014718 7.752940038982056 0 0 0
131 4 8.647687118504171 3.744050056508625 5.804450109363727 0 0 0
133 2 10.455710270805499 3.7033094510363713 3.745195852760932 0 0 0
130 2 9.072682554426077 5.534956525192624 3.871755246640314 0 0 0
136 2 10.426999098380708 5.740675683676929 5.9264870091624875 0 0 0
135 2 12.217125776337685 3.9064745847600335 6.010010149554346 0 0 0
134 4 12.118973065483617 5.510373443773505 4.0815278537235296 0 0 0
140 2 13.75047258781749 5.758954222470251 5.775552751522009 0 0 0
137 2 14.334367206331166 3.647122031651703 3.972160222484244 0 0 0
139 1 16.168526549071387 3.673712936790611 5.636545773110426 0 0 0
124 3 17.891172503148752 5.341957637505967 5.749507171639286 -1 0 0
138 4 15.817950984823598 5.654617713768395 3.983811571024944 0 0 0
143 3 1.5494823077972115 7.5001690022731875 6.190975973327201 0 0 0
142 1 1.8028961297145 9.04068448918665 3.8756187003739138 0 0 0
148 3 3.5985077295447243 9.30403963070685 5.852003659413894 0 0 0
147 4 5.343993634700267 7.185247802946135 6.025944881400121 0 0 0
146 3 5.345422479471204 9.466055013906965 3.8561667924326324 0 0 0
149 4 7.453390118593869 7.227866455584226 3.7959744961824757 0 0 0
152 3 6.712030306153392 9.129082968052305 5.830977241608421 0 0 0
151 1 8.765100086242397 7.389948647248113 5.66727193459245 0 0 0
150 2 8.727440669123151 9.326922665101632 3.978304854674878 0 0 0
156 4 10.427253442671754 9.158275250582088 5.741537597668441 0 0 0
153 1 10.878244902182109 7.363670018513764 4.051938812513617 0 0 0
154 1 12.402904536601772 9.023071253905263 3.9239501160001007 0 0 0
155 4 12.31952598756757 7.499884248167455 5.840938530914866 0 0 0
157 4 14.192447166759544 7.282508642026251 3.959482181048558 0 0 0
160 1 14.191192952532678 8.862674088322132 5.642522304232325 0 0 0
144 4 17.788117635477604 9.10066228666004 5.888988145178836 -1 0 0
141 1 17.85866005785894 7.35552044626458 4.054443324810273 -1 0 0
159 1 15.900246879848039 7.137903355140847 5.9061547201793605 0 0 0
158 1 16.36776144600364 8.998609879657051 4.071276576369777 0 0 0
163 4 1.3318909743217084 11.057094958950714 5.73868142187752 0 0 0
162 4 1.5106904715206986 12.635794794613528 3.935459630170933 0 0 0
165 3 3.3780747466593133 10.974214865215036 4.05623874095755 0 0 0
168 1 3.3810917520547727 12.838087296292297 5.8514509202962675 0 0 0
167 4 5.298915991939244 11.057531654649704 5.742076544381293 0 0 0
166 2 5.245414718906702 12.737472951689213 3.939207154127873 0 0 0
172 3 6.99876246634605 12.97399835551967 5.568919143143869 0 0 0
169 1 7.023209850348616 11.066885204984365 4.165205264859174 0 0 0
173 2 10.735207379010868 11.017558593923619 4.235541745390511 0 0 0
170 3 8.91865356681462 12.777823036701335 3.8562446238858206 0 0 0
171 4 8.74425322105738 10.884946519487984 5.897217355700122 0 0 0
176 4 10.75721158573594 12.905601746587234 5.773403613661002 0 0 0
175 1 12.439628977721874 11.119536369404853 5.712921315498038 0 0 0
174 4 12.405670798069316 13.009723964398153 3.8864206786656537 0 0 0
177 2 14.3478448861722 10.80521736234673 3.8523486070516313 0 0 0
180 2 14.26169693161832 12.702903032994005 5.637267994164022 0 0 0
161 1 17.790359741489098 10.97505696522248 4.0372989359075895 -1 0 0
179 4 15.927084435686373 10.424931305993121 5.779024305944391 0 0 0
164 4 -0.15045476559195237 12.697314815128873 5.649667886395278 0 0 0
178 2 16.281402940985203 12.75608558243477 3.830745805783441 0 0 0
183 3 1.509228296324505 14.419608544445873 5.559022196434234 0 0 0
182 4 1.5353172341074526 16.517518560852146 4.030900917251027 0 0 0
188 2 3.3965158715676647 16.420480977586195 5.802738450696445 0 0 0
185 2 3.0755789719314013 14.675619479062712 3.9041666184729475 0 0 0
187 4 5.146485388973421 14.727075529507504 5.569977289969854 0 0 0
186 4 5.223581105127451 16.39460906569881 3.7365063114781205 0 0 0
192 4 6.9731444083618355 16.487503455494632 5.541671707629968 0 0 0
189 1 6.968321465573605 14.475067952588658 3.6956801919757023 0 0 0
191 4 8.549802733292957 14.7160402108198 5.4048746052383425 0 0 0
190 1 8.821258982029788 16.47080920887924 3.9007152915848797 0 0 0
196 4 10.45187521414049 16.27697503409918 5.674534064405954 0 0 0
193 3 10.756098614216699 14.64607678892467 3.893433135608964 0 0 0
195 4 12.502804885136587 14.588151819062023 5.636607237200442 0 0 0
194 3 12.805580669945448 16.66874503688502 3.8694518698649905 0 0 0
200 4 14.27600604164437 16.760214475010137 5.76338742736879 0 0 0
197 1 14.034460229373478 14.657795311922232 3.7245599197027524 0 0 0
181 3 17.861009695635808 14.809663191869717 3.8085522895685253 -1 0 0
199 2 15.716107418411147 14.76028905645011 5.605892914653609 0 0 0
184 2 -0.059568122966645376 16.465980617094864 5.690622929970673 0 0 0
198 3 15.740889433937003 16.888013719885898 4.003437180152612 0 0 0
202 1 1.8111129896327127 2.0091769944553945 7.3985627983218025 0 0 0
203 3 1.4420331726066378 0.2455513900902777 9.436581705626574 0 0 0
205 2 3.2691629261057855 0.19636503463382998 7.678432008549995 0 0 0
208 4 3.6115326459933437 2.301485645303841 9.714460489294511 0 0 0
206 2 4.9950013100545085 2.0341830205939986 7.588460820566546 0 0 0
212 2 6.8760650740927725 1.953497655967301 9.547633322154173 0 0 0
207 3 5.1750136831465525 0.04585675612101864 9.222232706395623 0 0 0
209 2 6.8583569062414185 0.24132476321632834 7.5539295574404015 0 0 0
210 1 8.604149842833174 1.8811757682769148 7.644669549178398 0 0 0
211 2 9.004027070186483 -0.027181744873868874 9.249546389167703 0 0 0
216 4 10.549224728784786 1.807787973948999 9.31292117863955 0 0 0
213 1 10.69835228312124 -0.15378723584533482 7.688307785108849 0 0 0
214 4 12.382126869447545 1.9760196925614468 7.746604952221167 0 0 0
215 3 12.276321808301331 -0.04154434603683596 9.439307450147465 0 0 0
217 4 14.0792086091753 0.2486456032473448 7.3873372187144275 0 0 0
201 2 17.953539342080067 0.49395321845462004 7.64204406965126 -1 0 0
220 3 13.73000570225007 2.013302541549658 9.470898830268933 0 0 0
204 4 17.87030780251952 1.9177690197579405 9.261534456268024 -1 0 0
218 3 15.795713207481311 1.7965022663447319 7.667905295147544 0 0 0
219 2 16.278554900912376 -0.13886769757573475 9.420400798657253 0 0 0
223 3 1.4527110314106302 3.9655256905850775 9.47116238854135 0 0 0
222 1 1.4038014988092713 5.619055621490547 7.638957432028479 0 0 0
225 2 3.299193727554567 3.989423927498456 7.800785335599242 0 0 0
221 3 -0.20758134556031393 3.570502943950885 7.541838266663976 0 0 0
224 4 17.835000896900027 5.504844776153186 9.215826378227028 -1 0 0
228 3 3.2463679177871194 5.855139906410242 9.477556395730838 0 0 0
227 4 5.273198835358435 3.8062265406420197 9.466710525124167 0 0 0
232 4 6.830300098920706 5.345815678225082 9.433225124520627 0 0 0
229 2 7.0893845731146 3.636726323930023 7.401965606156533 0 0 0
231 4 8.568330616587481 3.7910555214421446 9.563192497056786 0 0 0
230 4 8.859913101810307 5.469068020190179 7.622274251272898 0 0 0
236 3 10.447128603100683 5.788763656613008 9.483050867761326 0 0 0
233 3 10.265225255526305 3.815774454523752 7.691481412553734 0 0 0
234 4 12.603483724344633 5.746040593130638 7.720544802745662 0 0 0
235 2 12.120094300022183 3.652622089298785 9.413362200583238 0 0 0
240 4 14.453564895503202 5.221224833009042 9.380280108776383 0 0 0
237 3 14.329975809454732 3.820868992590283 7.50929522210068 0 0 0
238 2 16.362878336720385 5.48227478204364 7.393484809901755 0 0 0
239 2 15.994022689420602 3.3895299365260003 9.164906599509548 0 0 0
242 3 1.5999120075449254 9.353415506913139 7.407206725399439 0 0 0
243 1 1.570288902079165 7.506654178943716 9.160863626479745 0 0 0
245 1 3.4583345591720036 7.4750590470295215 7.655796363883178 0 0 0
248 4 3.241929665351136 9.421841887631134 9.41612621992379 0 0 0
247 3 5.384555883362634 7.437654998108933 9.393295706297852 0 0 0
246 1 5.210562526408368 9.214951075433131 7.797576753105286 0 0 0
249 1 7.180695524382929 7.391432302507677 7.8098546210479665 0 0 0
252 3 7.17405545323094 9.25168847475173 9.534304127631982 0 0 0
251 2 8.718241466874732 7.513693095776956 9.466080405486014 0 0 0
250 4 8.681844382429329 9.178494094693892 7.354024927760861 0 0 0
253 2 10.51724578827482 7.613124804356376 7.6248198365698405 0 0 0
256 2 10.42439383558556 9.454786191594927 9.018244141200507 0 0 0
255 2 12.178348055932178 7.382507373888468 9.537110474041954 0 0 0
254 2 12.39411796350728 9.277541211033622 7.385380822711302 0 0 0
260 4 14.305260065746587 9.548912494906018 9.29395161588501 0 0 0
257 2 14.349150700966304 7.489825156327931 7.7314350036718515 0 0 0
244 3 -0.2047518246955131 9.397163042481349 9.265543582983474 0 0 0
241 3 17.82739731486788 7.356014842348124 7.673316314672091 -1 0 0
258 3 16.164755154905023 9.246992022970264 7.851795388973372 0 0 0
259 3 15.869172843209492 7.2138008643024305 9.872967680538977 0 0 0
262 1 1.4907911695710716 13.016399761184353 7.389590158574203 0 0 0
263 3 1.4608069560540236 11.287893036660035 9.334921220388885 0 0 0
265 1 3.255223112344042 11.280998109529184 7.751142422669642 0 0 0
268 3 3.4472695913486198 13.118414095899746 9.340604132896448 0 0 0
261 1 -0.17168568735374934 11.430745808277363 7.733091348073402 0 0 0
267 4 5.143384760561843 11.047836830074033 9.408197375267315 0 0 0
266 4 5.088967138372035 12.79882277861844 7.4168406655616845 0 0 0
272 2 6.793189743594685 12.862201994084334 9.278432709274808 0 0 0
269 2 6.82473677233945 11.060700378281812 7.785766794870651 0 0 0
270 2 8.811730509053085 12.91949700975934 7.3394218446294355 0 0 0
271 4 8.837488600232804 11.047841072273672 8.848161362300402 0 0 0
276 2 10.32015554576385 12.795807810676981 9.221280762795091 0 0 0
273 4 10.666460506442931 10.96753582993269 7.33509436975086 0 0 0
289 1 6.843596706797292 14.602189699060323 7.264867699088281 0 0 0
291 2 8.668715058910236 14.709829789885664 9.207878746206216 0 0 0
274 2 12.530898007071452 13.175681356115629 7.54183780304271 0 0 0
275 2 12.591412907191778 11.158707260663471 8.932081424744455 0 0 0
280 4 14.411993224961117 12.87730730301223 9.13186605112884 0 0 0
277 1 14.26656053661135 10.870919496186044 7.357283313866772 0 0 0
279 1 16.31117317996037 11.146239157485313 9.257071642859545 0 0 0
264 1 17.984371123454313 13.079911079713618 9.394453988823102 -1 0 0
278 3 16.123020914600403 12.666036441720081 7.250120256812977 0 0 0
282 4 1.718936867596405 16.616835762094254 7.7717302672497715 0 0 0
283 1 1.4278015362324958 14.776399524877718 9.293777047414398 0 0 0
288 4 3.2720421648665856 16.622334491827047 9.586235429121306 0 0 0
285 1 3.264638749162102 14.838742507587886 7.500809799171676 0 0 0
287 4 5.316083035574284 15.07116397519932 9.227093612043523 0 0 0
286 3 4.971914642704166 16.46891562784125 7.347248758750019 0 0 0
292 4 7.0299565258791645 16.69191802862943 9.405112495069385 0 0 0
290 3 8.619430797777587 16.552298414044856 7.234224403997716 0 0 0
293 2 10.795947795475024 14.660473999485873 7.240786798454299 0 0 0
296 2 10.867729655225448 16.588789606280187 9.681444194647767 0 0 0
297 1 14.406122714531637 14.47308670125665 7.520759584985258 0 0 0
295 2 12.640205978883552 14.857324692544195 9.6426531502877 0 0 0
294 4 12.604589511802777 16.366450424164967 7.3842463177661335 0 0 0
300 4 14.148919558264454 16.38914294458884 9.291201318001072 0 0 0
281 3 -0.14646891975121434 14.727296570958709 7.433651597253123 0 0 0
299 1 15.9794790740072 14.691552481598563 9.30763430801412 0 0 0
284 1 -0.13184711324534248 16.35322933802265 9.479868879998914 0 0 0
298 3 16.121672152772682 16.688128015806655 7.400574375217215 0 0 0
302 2 1.4751501323448775 2.0873261841763844 11.23176861413875 0 0 0
303 2 1.5327576351421894 0.15776813367920112 13.076228094128203 0 0 0
305 2 3.381387009082943 0.22847206602535336 11.058666105976306 0 0 0
308 2 3.353425100258136 2.1796006954712945 12.772235638920339 0 0 0
309 1 6.846630442584366 0.00651972237067866 11.02875312159492 0 0 0
306 2 5.244836036311466 2.046032587130589 11.306695171685574 0 0 0
312 1 6.6804689372315815 1.9876842405692194 12.95136999176454 0 0 0
307 3 5.162146678595282 -0.017315916168814643 13.11852638846832 0 0 0
310 3 8.809082939814326 1.9093108275696724 11.235963742046222 0 0 0
311 3 8.609067644707064 -0.09090888517305609 13.00754409608646 0 0 0
316 1 10.811348219433475 1.9887181671288139 13.154201542528256 0 0 0
313 4 10.671696549688168 0.24631659716222182 11.163719176434714 0 0 0
314 4 12.580870395670392 1.7032330269518037 11.277498333353298 0 0 0
315 2 12.410504295464703 0.061787610202466425 13.02331386274983 0 0 0
320 3 14.405519257635637 2.104176949938224 13.250823851831685 0 0 0
301 3 17.650030119460034 0.049938743172760536 11.034882007733836 -1 0 0
317 4 14.398890896574176 0.14212744977812192 11.098420468122965 0 0 0
304 1 17.803453327734402 1.7339063701127901 13.224557482737524 -1 0 0
318 1 16.248664514348306 2.018417748390116 11.230852713350433 0 0 0
319 3 16.257451053446147 -0.02379427151456684 12.921548715845807 0 0 0
323 3 1.3966379083186817 3.646070831784525 13.129686827139974 0 0 0
322 3 1.4721771253272538 5.689144811153582 11.058756245032962 0 0 0
325 2 3.430964240272412 4.197496495225886 11.274449738444646 0 0 0
328 1 3.216904787247334 5.491445916699541 13.124022472124143 0 0 0
327 1 5.2796226924534295 4.091986047902612 12.869551037041218 0 0 0
326 1 5.087354204641526 5.68768300733205 11.188910634435024 0 0 0
332 1 6.999208110042471 5.583266919227284 12.90432853846302 0 0 0
329 1 6.8011444729982395 3.912307919989039 11.200593051832028 0 0 0
330 3 8.855625567447538 5.4767775370182745 11.306792743254189 0 0 0
331 1 8.854183453355105 3.787394680115769 13.026630177417726 0 0 0
333 1 10.511912682987075 3.547249294120368 11.184571595664835 0 0 0
336 2 10.57308501116825 5.3916435933351865 12.982006838203773 0 0 0
335 2 12.317139761066342 3.4045772057464614 12.987289958586013 0 0 0
334 3 12.377074286191615 5.5206895580784865 11.450079413385946 0 0 0
337 1 14.054518362205924 3.7400967192796983 11.283834004630211 0 0 0
324 2 17.88245868619127 5.7552870424799725 13.239499353254912 -1 0 0
340 3 14.23223063348004 5.651850065700865 13.114028113555595 0 0 0
321 3 17.936602097868608 3.5450375646806487 11.192258129833096 -1 0 0
339 1 16.18169839182579 3.7570872165870135 13.250564322090236 0 0 0
338 2 16.122246496095997 5.511345899981133 11.47332201327632 0 0 0
343 3 1.386478297293569 7.6098770517441485 13.041790430925044 0 0 0
342 3 1.3854463537177106 9.386739670892023 11.125846835346916 0 0 0
348 2 3.1150405516731605 9.416935124682517 12.830925049293223 0 0 0
345 4 3.4004730222302557 7.504979075208196 11.237213149763331 0 0 0
347 3 5.230191719493249 7.375092952544652 12.82825736554394 0 0 0
346 2 4.936490990545503 9.411310989916267 11.154478941106925 0 0 0
352 4 6.905380808336156 9.412056279706537 12.979961825179464 0 0 0
349 1 6.9222433277172675 7.436528181135874 11.233670364047383 0 0 0
351 3 8.811151320106257 7.64539277989935 12.99355663917681 0 0 0
350 1 8.832800045422303 9.44203453709765 11.208645846896285 0 0 0
356 4 10.744571964552192 9.323301326142872 13.083723111200195 0 0 0
353 4 10.457836350726089 7.275752928895401 11.487411213054372 0 0 0
355 4 12.36331242982684 7.38947811272407 13.112093210606131 0 0 0
354 2 12.413813152993034 9.226627018960075 11.052461593067047 0 0 0
357 3 13.925541858795647 7.493596298369851 10.990547946063694 0 0 0
360 1 14.348985258131318 9.198515286920536 13.035282682654788 0 0 0
341 3 17.790615777862634 7.426149189808584 11.344473280956064 -1 0 0
359 1 16.114843843751736 7.6088539082517075 13.082187653312246 0 0 0
344 1 17.5578167470466 9.298837735972167 13.150986493871303 -1 0 0
358 3 16.027744918756937 9.308354808077066 11.252742794597616 0 0 0
363 1 1.5953812908034997 10.949941265181991 13.066308227764608 0 0 0
362 1 1.6113542672498977 12.829157300683542 11.317080005838774 0 0 0
383 3 1.264714970553723 14.855367801314838 12.979137385169492 0 0 0
365 3 3.3704343741640277 11.098965235840689 10.958772115196476 0 0 0
368 4 3.4054738019648667 13.007365627346923 13.076099014690582 0 0 0
367 3 4.962183229135386 11.169556525697308 13.181467885137335 0 0 0
366 2 5.176158839457596 13.073966349921399 11.083082527278993 0 0 0
372 3 6.944255642459091 13.146297931738909 12.842876970338418 0 0 0
369 4 6.899416071107822 11.232424017274012 11.01466351886366 0 0 0
371 2 8.901987566889803 11.142512995752227 13.101762021330208 0 0 0
370 2 8.570402597915292 13.05363175409788 11.03574301600121 0 0 0
376 1 10.811412229960114 12.857013971317432 12.895112716980659 0 0 0
373 2 10.829102229730543 11.24406887326906 11.095312279966985 0 0 0
374 2 12.57675211853115 13.00047701577618 11.152150759858714 0 0 0
375 4 12.670077473245977 11.066352592792095 12.908753525168073 0 0 0
361 1 17.800239736713706 10.803492609076708 11.381661507194673 -1 0 0
377 1 14.18779308907219 11.346406087409887 11.165086562471451 0 0 0
380 3 14.52765389127273 13.020612846354496 12.88341584991347 0 0 0
364 3 17.917480877040127 12.834798995371886 12.561240834673855 -1 0 0
378 1 16.277905750947063 12.786529524203244 11.019904440274248 0 0 0
379 4 16.050039180806728 11.20732820502258 12.952517488199673 0 0 0
382 3 1.3588172544642232 16.61422074632776 11.175619874728705 0 0 0
388 4 3.161261312018146 16.474755617067892 13.131180045984227 0 0 0
387 1 5.010947662497398 15.047244677596506 13.015293488673453 0 0 0
385 2 3.215980783134531 15.02251029969347 11.129919722875764 0 0 0
389 2 7.056701356473004 15.046769229710035 10.913498707096757 0 0 0
386 4 5.283350316605828 16.514217493199347 11.163980953911052 0 0 0
392 4 7.116744322819154 16.42251701190215 12.735979588908464 0 0 0
391 4 8.7069751334532 14.577480117215822 12.942334615564858 0 0 0
390 4 8.85263630682297 16.51057587800875 11.07757836799873 0 0 0
396 2 10.68052620632333 16.52373793979001 12.95620609416218 0 0 0
393 2 10.82692825252842 14.644481677496007 11.181303368919071 0 0 0
395 4 12.503519280541704 14.505485247726128 13.099827890525708 0 0 0
394 3 12.762768450457035 16.559088475252324 11.407794589205501 0 0 0
400 3 14.452350849508047 16.499859251252765 13.256710112100516 0 0 0
397 1 14.525240732769156 14.745859069455754 11.038708230740683 0 0 0
399 3 16.17704358246214 14.887245887396324 13.141394043085889 0 0 0
381 1 17.937830346240293 14.640259990640706 10.97439451393329 -1 0 0
398 4 16.123682728886592 16.39632822338087 11.238678346970465 0 0 0
384 4 17.859343260028766 16.682289173850478 13.149135011780759 -1 0 0
402 2 1.415898791776563 1.9229257777567086 14.79465406992808 0 0 0
403 1 1.5187689465077125 0.12906755406337095 16.733942529011145 0 0 0
405 4 3.1346927052340887 0.1863806416996835 15.063787011878489 0 0 0
408 3 3.158791460780758 1.9460688400967676 16.575956030299878 0 0 0
406 1 5.007915819029223 2.2816080637780995 14.676536266923256 0 0 0
407 1 4.978298417722623 0.31043186157904046 16.64008649931869 0 0 0
409 2 6.7343468879447235 0.43402496138954694 14.933941307752939 0 0 0
412 4 7.065967409513071 1.9166053959844551 16.808231997187065 0 0 0
410 3 8.644643927222557 1.789925283547455 14.391610830332818 0 0 0
411 1 8.558452150394336 0.038201032383711836 16.67506262639229 0 0 0
416 2 10.422597553254375 1.9367772271318486 16.449866130351765 0 0 0
413 3 10.636491345534587 17.944024280782926 14.998680382251036 0 -1 0
414 4 12.55018479899891 1.9689787623604804 15.078992903155989 0 0 0
415 1 12.58261861326108 0.14763583670753805 16.53485519234586 0 0 0
420 4 14.213546095999954 2.1855589172037844 16.871184999904592 0 0 0
417 2 14.32522235380328 0.2684624192450339 14.586070453193386 0 0 0
404 4 17.7172981542031 2.0212364925083506 17.017053198520827 -1 0 0
401 1 17.821134622948392 0.25296699848185045 15.18138558157472 -1 0 0
418 1 15.855831225208254 2.0065302861933803 15.149815054188368 0 0 0
419 3 15.829733146728591 0.23113807546392134 16.83461285221272 0 0 0
423 1 1.4648514341317842 3.7006430510380217 16.45895144318999 0 0 0
422 4 1.5566084047605648 5.4456185235846215 14.905264463706043 0 0 0
428 4 2.997756255770168 5.577297187457934 16.459338595987873 0 0 0
425 1 3.3778218757517915 3.7168923901718514 14.745756358940895 0 0 0
426 2 5.31811174842058 5.661313535308272 14.689652864082907 0 0 0
427 3 4.962555171772226 3.8563168735025712 16.606753866676904 0 0 0
429 3 6.984812517854628 3.8859347444536585 14.987305312063851 0 0 0
433 4 10.507604737483256 3.7532936034563344 14.981637731776988 0 0 0
432 4 6.936151861738155 5.763358815320158 16.557850548408737 0 0 0
431 1 8.51005540424155 3.9949360440792967 16.693166356641733 0 0 0
430 3 8.941930428785698 5.514625420073476 14.77490495400691 0 0 0
436 1 10.440713313098925 5.633838261776522 16.61120683175929 0 0 0
435 1 12.382619278886128 3.903156228064807 16.637439661307788 0 0 0
434 2 12.486086690131701 5.6476564064300305 14.805212982772852 0 0 0
440 2 14.29662296926335 5.834574285619803 16.672959853479576 0 0 0
424 3 -0.1559531999054471 5.520994454245821 16.59168511428156 0 0 0
437 1 14.376679671713076 3.9449552376247006 14.821457609375745 0 0 0
421 1 17.795769550224477 3.6402141160487407 14.965923774414184 -1 0 0
439 1 16.075746055012694 3.589453818761137 16.87622668865714 0 0 0
438 3 16.025873617288603 5.778589217176927 14.808134879292433 0 0 0