LAMMPS data file via write_data, version 30 Mar 2026, timestep = 14000, units = metal

500 atoms
4 atom types

-0.10705425301602745 17.9070542530161 xlo xhi
-0.10705425301602745 17.9070542530161 ylo yhi
-0.10705425301602745 17.9070542530161 zlo zhi

Masses

1 58.933
2 51.96
3 55.845
4 58.6934

Atoms # atomic

4 2 0.02490327753879859 1.55604625672161 1.5402961338694299 0 0 0
2 2 1.9323704209305985 1.7639564342279956 17.65418984209553 0 0 -1
23 2 1.9972067390172499 3.58174092440618 1.5102198884791493 0 0 0
102 4 1.6697222126392335 1.5305727477450448 3.3472546532914524 0 0 0
121 4 17.87643702287147 3.183602891621811 3.3966253973117553 -1 0 0
8 2 3.63098139610862 1.7487676427889984 1.7731477594310001 0 0 0
125 2 3.5572396624300433 3.3131533127368638 3.409582679591747 0 0 0
27 2 5.387112319664805 3.7722433768279457 1.6632219399670067 0 0 0
106 2 5.313955944513863 1.634377393976009 3.4228385774817873 0 0 0
6 2 5.488284029896057 1.3718566393410163 0.10996490538268891 0 0 0
12 2 7.381197115673569 1.4535872732802066 1.669633739070842 0 0 0
16 1 10.617765149013474 1.249255129845823 1.731639050379508 0 0 0
31 3 9.214050774272696 3.3059778802862883 1.6302263526804424 0 0 0
129 2 7.269049705644606 3.6050973439202 3.2660285167534022 0 0 0
110 2 8.963959189924603 1.5170236776655348 3.333740249062822 0 0 0
10 2 9.425420193983545 1.3250028853870361 0.07637070547324498 0 0 0
35 3 12.322351690691459 3.2232505040263124 1.994869911924602 0 0 0
20 2 14.162657483626091 1.4821422064214216 1.51750693597272 0 0 0
137 4 14.30873806129929 3.140546616417757 3.5329848188869644 0 0 0
114 4 12.50451192572901 1.1859414359829918 3.547834378978072 0 0 0
14 1 12.238724456860878 1.4329099901716362 -0.009040272262877472 0 0 0
39 4 15.894113711574064 3.4135696106171607 1.421019662851929 0 0 0
118 4 16.160668197763215 1.5097103068848643 3.4793039335485685 0 0 0
117 4 14.422107799587252 17.633405235344185 3.66440150751865 0 -1 0
21 4 17.864031828012177 3.5079050304774815 17.702934806646766 -1 0 -1
43 2 1.844437363042272 6.91302677378743 1.6507377738852416 0 0 0
122 2 1.9177015009619458 5.066885858962718 3.508223490998341 0 0 0
141 4 17.69392330975098 6.74299955317341 3.3504133557638025 -1 0 0
22 4 1.592736540169346 5.277011421160165 17.698604394134748 0 0 -1
28 1 3.548513331976728 5.1541252056573255 1.7030723610211242 0 0 0
47 1 5.361648978602266 7.183272158188126 1.8436395761048734 0 0 0
126 1 5.315330357003592 5.0614583617221225 3.4579922922269843 0 0 0
145 2 3.7399545743354174 6.67476692107562 3.1388519850554544 0 0 0
149 2 6.962932260868486 6.85501705261417 3.3419087355983526 0 0 0
32 1 7.174942631388655 5.430195069361119 1.8048048506779384 0 0 0
130 2 9.269465418823447 5.432168780691672 3.3209512194419557 0 0 0
36 1 11.044117714391467 5.378007086182126 1.732525492094385 0 0 0
40 3 13.909223784514628 4.866568318062851 1.8522438161299402 0 0 0
55 3 12.573081314306993 7.116252894397065 1.5026286149199002 0 0 0
57 3 14.3269428371241 6.904108703180721 0.07855828321028469 0 0 0
24 4 17.849615423541202 5.0172723299912665 1.622186967817184 -1 0 0
59 4 16.12995582456973 7.050546144174202 1.754801097421403 0 0 0
38 3 15.994930716557693 5.145707026011156 17.739884702385034 0 0 -1
138 4 16.1152022730318 4.853879184742871 3.136719317542305 0 0 0
41 4 -0.012740408436488174 6.8510791207629635 -0.08452435614163975 0 0 0
142 2 2.152897967122841 8.670668097877469 3.565820332158589 0 0 0
63 3 2.0354571046422327 10.596023390443023 1.7053553101375671 0 0 0
42 3 2.018767570105616 8.473497804672556 0.06892858941235633 0 0 0
48 2 3.6061868230039495 8.6843705361019 1.6707756795979536 0 0 0
65 2 3.787386386672389 10.962987587983568 0.03264698381750766 0 0 0
67 3 5.272717717874766 10.601527836081855 1.777653714277449 0 0 0
46 3 5.359030086793451 8.88229717825742 -0.0937031674422779 0 0 0
51 1 9.195345768296118 7.084118507310254 1.536690042512504 0 0 0
53 1 10.747735360432205 6.897436026217922 17.88431462751795 0 0 -1
49 1 7.232758596433468 7.161978903019498 0.04580724051669763 0 0 0
52 1 7.161179905171005 8.911094579012536 2.1878009498800957 0 0 0
69 1 7.349298832056581 10.365858744590245 0.09506436828901244 0 0 0
50 2 9.238644050143462 9.160537153684245 17.815215390393426 0 0 -1
56 4 10.769742028478452 9.221816152904998 1.8201999784212501 0 0 0
54 3 12.142268919747739 9.127184918319115 17.646126532306432 0 0 -1
75 2 12.74642139633015 10.650937558703239 1.6820630734067241 0 0 0
77 1 14.160996414941867 10.629036673316378 -0.061392816949794406 0 0 0
44 2 0.22227830366581303 8.483498957466344 1.7669447763776673 0 0 0
60 1 14.373888726123258 8.873987632664388 1.5325904007747315 0 0 0
61 2 17.78364281333552 10.437978737648935 17.865243559255823 -1 0 -1
161 4 0.17510350340487335 10.508301623668764 3.265970819644248 0 0 0
64 4 0.2499322628967261 12.256706465632462 1.5322243006522709 0 0 0
83 3 1.6702108319089377 14.250660412696075 1.5177904339776498 0 0 0
162 3 1.7874813551024062 12.506862663809533 3.4280150095521096 0 0 0
62 1 2.276869483623002 12.368677480624957 17.686836219160792 0 0 -1
68 1 3.4705022803800767 12.560649089267796 1.6342371419581072 0 0 0
72 1 7.052740634633745 12.433117982075265 2.138112289075567 0 0 0
85 3 3.538780939218171 14.35990155953332 17.882107441102345 0 0 -1
185 2 3.53951060853394 14.104839632160976 3.257442283084629 0 0 0
66 1 5.430748751540719 12.367836425021508 0.07499035138812313 0 0 0
71 3 8.977169565277574 10.735015074747865 1.986962303577417 0 0 0
70 4 9.09928522927585 12.403538819765945 0.10585210358700614 0 0 0
91 1 8.92797191323713 13.976865550015509 1.940973375138678 0 0 0
93 3 10.84241312673369 14.048262252044637 -0.05719363325327538 0 0 0
76 1 11.086145547964342 12.493319542231612 1.8775176375979246 0 0 0
95 1 12.708323592787373 14.094485912107817 1.992159112612855 0 0 0
73 2 10.88323180128382 10.930752728282798 0.06055916234591682 0 0 0
74 3 12.87176388418441 12.74673569634528 -0.07575842836689184 0 0 0
79 4 16.350966631876634 10.681094096068636 1.6576623712525822 0 0 0
80 1 14.16314675983358 12.37046871379509 2.048374544791423 0 0 0
97 4 14.664356030359802 14.193740900089844 0.12445541138110378 0 0 0
99 3 16.66370111768677 14.011964118393465 1.485111582238875 0 0 0
78 3 16.013486323956833 12.143465046900525 0.04428374134624205 0 0 0
3 4 1.8246086367859173 17.757838680559168 1.7450521179927474 0 -1 0
182 4 1.8316213673074666 15.896929071063393 3.1028957708237455 0 0 0
84 3 0.08409256431468248 16.00845007120776 1.4946876927913113 0 0 0
105 2 3.8284415908694442 17.532332467938755 3.763376207988918 0 -1 0
88 2 3.50897471116488 16.07129741396665 1.6690983493033278 0 0 0
7 3 5.2945723685718535 17.558917037384745 1.6401352517736638 0 -1 0
87 4 5.283296447977322 14.5025403630566 1.6395548612512216 0 0 0
86 3 5.491256607393477 16.152711126429207 -0.09790564237051692 0 0 0
186 3 5.224342862678379 15.943298864447176 3.7465402748555547 0 0 0
11 2 9.160248603151539 17.541997803532603 1.8495064532616996 0 -1 0
92 1 7.3757270446027245 15.97311922867117 1.754999465850095 0 0 0
96 1 10.436772965212967 15.884733195616889 2.0172186907568586 0 0 0
9 2 7.51491228690177 17.673552039473755 0.17642156258827063 0 -1 0
90 2 9.002021780101542 15.658112512280503 0.08129214152243336 0 0 0
15 4 12.550862336724071 17.33938481398765 2.0537715784915798 0 -1 0
194 2 12.650348085642035 15.490967805786765 3.703422454790109 0 0 0
113 2 10.655452344233481 17.63478775747413 3.5788070543892667 0 -1 0
19 4 16.489954811792025 0.019421406843356692 1.617604029849732 0 0 0
100 3 14.777168548254153 16.262801049865974 1.6466367138517493 0 0 0
98 4 16.390171718968567 16.113110419709624 0.018356708158652424 0 0 0
198 1 16.467748399753354 15.868721359343727 3.315285675926062 0 0 0
104 4 -0.022410935747531766 1.3336672430429788 5.142482758535508 0 0 0
123 3 1.5356592526708956 3.132910456710434 5.374255852975554 0 0 0
108 3 3.729291120036495 1.6546837542908153 5.158468894902659 0 0 0
225 2 3.6958089974911634 3.265564852578755 7.074999167270458 0 0 0
202 1 1.981214715423134 1.5448149973519383 6.985815025953008 0 0 0
221 4 0.09483441887588037 3.2784393751017653 7.109075036694904 0 0 0
205 3 3.783629049016043 0.11314428091940268 7.051091719081164 0 0 0
112 2 7.128191557671441 1.7367268836205998 5.167580327468511 0 0 0
131 4 9.171220141564152 3.6195011580103618 5.461911057355676 0 0 0
133 4 10.737194691732553 3.2667484625281227 3.640630753041347 0 0 0
116 4 10.831651516459495 1.5102683261003609 5.424448715270589 0 0 0
135 2 12.64921401348111 3.3655311416559597 5.06961403483016 0 0 0
214 4 12.786815817564776 1.5917983857778688 7.133859590925562 0 0 0
233 2 10.888607487908233 3.5651096749699507 7.091575170064362 0 0 0
120 4 14.34195803904526 1.3557740338684774 5.374731563859666 0 0 0
139 2 16.227276888159764 3.146220726299069 5.242133330320699 0 0 0
218 4 16.298888462167284 1.3834345151523293 7.263482156611839 0 0 0
237 4 14.579821614073085 3.0766723701335117 7.119004593119094 0 0 0
119 3 16.047467918860196 -0.06280952615995261 5.380041255654496 0 0 0
217 4 14.485952921290858 -0.08846146350105855 7.254138419520135 0 0 0
245 2 3.716312540823267 7.154293296021212 7.319485920699675 0 0 0
143 4 1.953455970038016 7.112214240311515 5.076533587796468 0 0 0
128 1 3.3971536499546144 4.788784251913768 5.214976283215458 0 0 0
124 4 0.22616923348014345 5.116739981982424 5.233610383029168 0 0 0
127 2 5.693933891993679 3.735779922737465 5.221887381448999 0 0 0
229 2 7.004297228087269 3.448804815196858 6.941499586182698 0 0 0
147 3 5.430152413311846 6.842756972253457 5.359962127066234 0 0 0
249 3 7.328169210210154 6.69893903403461 6.9108089106464705 0 0 0
132 4 7.209184513699574 5.348804523162582 5.067530823402842 0 0 0
151 4 9.015759452887117 7.17835201635201 5.082579510109411 0 0 0
230 4 9.176690499101792 5.39479738497835 7.043797123103613 0 0 0
136 2 11.002129400178548 5.198728413072419 5.323110085715883 0 0 0
134 1 12.489381332474204 5.351046690478923 3.4727916249333433 0 0 0
253 2 11.244277246761497 7.05504786563506 7.041422971946375 0 0 0
234 2 12.74156739888122 5.074110412595365 7.018926264022015 0 0 0
155 1 12.595828573704335 6.899669044235322 5.177942677466632 0 0 0
157 3 14.498644692043872 6.842442816852943 3.483867454891206 0 0 0
140 4 14.613140314001111 4.892367890701308 5.241778483913679 0 0 0
159 3 16.36746833186929 6.510829586298909 5.168415810764065 0 0 0
238 4 16.317241679491953 5.033710064758311 7.194662042199277 0 0 0
165 3 3.493472928205086 10.774811637470764 3.5335388536777494 0 0 0
144 3 17.861672935530493 8.553613945450252 5.153621138227884 -1 0 0
163 2 1.7384161170914179 10.496744092865773 5.35828133076103 0 0 0
242 3 1.7822412426106558 8.795625287879743 7.252972131792057 0 0 0
148 1 3.3452662619471316 9.004629619409481 5.566594315910025 0 0 0
146 3 5.025277930491671 8.76423334019892 3.6509084759073973 0 0 0
167 1 5.445014707403987 10.421831537582966 5.21564927623997 0 0 0
150 3 9.053056449219639 9.028798888568494 3.530535907060257 0 0 0
152 3 7.058377271744768 8.736230374375358 5.294456483710941 0 0 0
169 2 7.06476639031605 10.753015355064743 3.610378321353361 0 0 0
153 3 11.15252065661352 7.317003572686259 3.421077030687065 0 0 0
154 1 12.985422045396156 8.97110899333628 3.687035605958549 0 0 0
156 4 10.762615759836583 8.844762827375545 5.308404960300921 0 0 0
175 3 12.597533818270053 10.640914294422007 5.605494130927759 0 0 0
158 4 16.067448884947897 8.844343464558914 3.3802537500184484 0 0 0
160 2 14.427303091004298 8.315569277078403 5.169541155506187 0 0 0
179 4 16.21295172214619 10.387917818495088 5.0599576196250755 0 0 0
277 4 14.630296755478001 10.326814473443731 6.898108756820752 0 0 0
258 4 16.201398176626608 8.416531909964148 6.946654026591002 0 0 0
261 3 17.819274099039895 10.708533704899503 6.866444480140982 -1 0 0
164 1 0.143080311212735 12.632495885695182 5.2365284570863295 0 0 0
168 3 3.476328834987328 12.400135960580524 5.409970932923114 0 0 0
166 1 5.274113951329895 12.387283319258225 3.427859812369831 0 0 0
266 4 5.393901846744362 12.191937558949665 6.998210952964775 0 0 0
187 3 5.2078311197037 14.227227947256898 5.43498645958826 0 0 0
172 1 6.958973311252354 12.451658537411467 5.0780217030332295 0 0 0
170 4 9.136809322810006 12.196129229436947 3.972667469781616 0 0 0
171 2 8.780155248558106 10.470346842410374 5.697409268318174 0 0 0
191 1 8.649706444044218 14.382777580385262 5.644300838088708 0 0 0
189 1 7.108742476940798 14.34915730126645 3.7287501779476604 0 0 0
193 3 10.541328623016147 14.147388732576177 3.691354091886134 0 0 0
173 3 10.956440056128605 10.622448030288465 3.8901835391136648 0 0 0
176 3 10.732428723516648 12.449491512628354 5.923213155086753 0 0 0
174 3 12.433822441389443 12.423235788746275 3.9206526384367146 0 0 0
195 1 12.760424837929115 14.559238549862847 5.6303263523250875 0 0 0
178 3 16.39568609325402 12.319815164289123 3.5533700601425604 0 0 0
177 2 14.359549946263327 10.523211106104473 3.4780948717503493 0 0 0
197 1 14.434974688853316 14.406683666112068 3.6116057238158397 0 0 0
180 1 14.393908125931674 12.178105263986748 5.142838658336761 0 0 0
199 2 16.34403162472799 14.435700457651969 5.293036954305594 0 0 0
278 1 16.193118549897992 12.393595582727668 6.686142678537084 0 0 0
101 3 0.014490866176910963 17.675495186282866 3.6358233612169544 0 -1 0
181 1 0.08917919120349754 14.485022959951118 3.690493337463362 0 0 0
103 3 1.848420359210909 17.70687941807833 5.1098717672650595 0 -1 0
183 1 2.0630066791608574 14.551031551439072 5.1349139579708565 0 0 0
184 4 -0.08787591072740475 16.187934753276775 5.212376097984052 0 0 0
282 1 1.8083380253385914 16.261106043350075 7.13794271690615 0 0 0
107 3 5.38567044241027 17.829346979430245 5.205867880520458 0 -1 0
188 2 3.5532976857451937 15.89778473825082 5.9809665934871665 0 0 0
192 2 7.105865821062473 15.902250383743372 5.395476888465432 0 0 0
209 3 6.981130694774119 0.08868630243997905 7.11105879296346 0 0 0
286 1 5.427540223989089 16.190137376863355 7.183099666814707 0 0 0
109 2 7.2396913700020225 17.784511025580095 3.161727355135681 0 -1 0
111 2 8.897664609102495 17.747243961859734 5.1899846936187295 0 -1 0
190 3 8.849935656934333 15.908968122025883 3.7875485640753146 0 0 0
196 2 10.423906202468249 15.814400640551371 5.40737321754902 0 0 0
115 2 12.380808349778802 17.394192669481885 5.422282043652307 0 -1 0
200 4 14.385223338944469 15.900592843511923 5.512171966783884 0 0 0
298 4 16.516563743002123 16.212958125941487 7.453662305003152 0 0 0
223 3 1.8271308072374628 3.3439666676037803 9.05521104788508 0 0 0
203 1 2.034331549231307 -0.053672783539793247 8.96527244737694 0 0 0
204 4 0.1697658546021935 1.4969067779370724 8.880192119716785 0 0 0
321 3 -0.06266064146643682 3.2289501393012143 10.728511406557534 0 0 0
206 1 5.375204544391964 1.7729020797091304 6.768365042735383 0 0 0
208 3 3.702567174844221 1.7295901515672327 9.039982824305929 0 0 0
212 4 7.107418392601891 1.7402263703330343 8.810691522459704 0 0 0
210 4 8.90551299343935 1.5469453448623296 7.143082387024884 0 0 0
231 4 8.952343704875998 3.2123328406927016 8.871377153161049 0 0 0
213 4 10.798957205581345 17.82009689928314 7.260374591290194 0 -1 0
310 4 8.894082490307225 1.3717019162214925 10.616118347991907 0 0 0
216 4 10.870068527988039 1.533255548888109 8.845306809204825 0 0 0
235 2 12.62603787478239 3.4602270328985276 8.883512595197875 0 0 0
220 4 14.506369855128971 1.6887822427074939 9.01924633164975 0 0 0
318 4 16.161155493491016 1.6630202866122488 10.72590287715442 0 0 0
239 2 16.274102776124685 3.351240143787548 9.095649594692736 0 0 0
222 2 2.0282205424297053 5.259820805404327 7.078627657312842 0 0 0
241 3 0.004031934160276571 6.810658610738846 7.061858780126398 0 0 0
224 3 0.006351478504229374 5.299199447502424 9.165618310748933 0 0 0
228 4 3.713696129284101 5.204764007693068 8.893543448053386 0 0 0
226 4 5.345133014265246 5.275036547113547 7.226515422983076 0 0 0
227 2 5.550669341090348 3.426961766546563 8.896227637194047 0 0 0
247 3 5.4475948299555474 7.0058168862035535 9.247507551980474 0 0 0
232 4 7.186435485747759 5.229201855770377 9.063466768591432 0 0 0
236 2 10.84409533910754 5.161586964426332 8.891892176903708 0 0 0
255 2 12.874384648170732 6.690039859622988 8.698526058867014 0 0 0
240 2 14.411205558584841 4.9401974751571816 9.00179933997388 0 0 0
259 2 16.176408528501753 6.843156195622944 8.937517823289806 0 0 0
257 4 14.540886602923138 6.745996945729244 6.903639192548691 0 0 0
338 2 16.38811755533903 5.078650369449585 10.874834767867753 0 0 0
243 4 1.896735128365818 6.954776333109272 8.749882618851057 0 0 0
244 3 17.78043556823232 8.594222612506039 8.86947203658512 -1 0 0
265 2 3.9798186070982453 10.314004441333104 7.054396066117929 0 0 0
269 3 6.771375862884444 10.450071375642302 7.0869579877318065 0 0 0
248 3 3.6906375346734133 8.701433138708841 9.007180274006664 0 0 0
246 1 5.37326608862755 8.41523701348305 7.139748409458449 0 0 0
252 1 7.1804813032368235 8.756646150281544 8.983636372563007 0 0 0
250 4 8.957873137769083 8.446885889257223 7.022624424440273 0 0 0
251 2 9.227792957486864 7.037648803595324 8.994879546306237 0 0 0
271 3 9.131608800353561 10.168821979164653 8.726442471543862 0 0 0
369 1 7.38746210744956 10.529289746319876 10.626967145799346 0 0 0
273 4 10.980290233798037 10.410602043467811 7.166784872293087 0 0 0
256 3 11.105471407085654 8.775481512935054 8.921490621652552 0 0 0
254 4 12.911901723668427 8.762763803788859 6.980368561303226 0 0 0
354 3 12.789175300425821 8.539895187127636 10.860170674865495 0 0 0
260 3 14.319867617221057 8.780459406492183 8.933321666508693 0 0 0
279 3 16.00105277160645 10.554071920440117 8.752679370060699 0 0 0
341 3 0.14772301363483814 7.084019449288071 10.845515661221519 0 0 0
358 2 16.359983827943488 8.968019518115696 10.768175130916731 0 0 0
262 2 1.6901211144223807 12.774254539179157 6.600796246811889 0 0 0
263 2 1.6361449338994467 10.653102693162987 9.195622070897393 0 0 0
268 1 2.651504045674557 11.579840815514412 7.770186896766545 0 0 0
264 1 0.006876509405172454 12.475668767687772 8.604507833985826 0 0 0
285 1 1.9555947312304656 14.335019934869415 8.7437263050891 0 0 0
381 3 0.24193666027710053 14.204528839346077 10.714329279000367 0 0 0
365 1 3.4099367528052333 10.679225154721353 10.356714464576912 0 0 0
267 1 5.336822554639509 10.637974270717557 8.875518602271356 0 0 0
287 3 4.291354162088251 13.124079630158299 9.129622640676047 0 0 0
288 2 3.7947585566469932 13.414836315743115 8.234197178378782 0 0 0
366 2 4.81664697373127 12.85676783109017 10.003432377001392 0 0 0
289 3 6.715502816140627 14.054345933449332 7.561832202357775 0 0 0
272 2 6.912822117828047 11.925619890998172 8.925405932680311 0 0 0
270 4 8.628583606318195 12.323634278563048 7.337343261399734 0 0 0
291 3 9.058813442563304 14.34911720168803 8.836453962709339 0 0 0
276 3 10.768019742678018 12.379616379265872 8.63608968713372 0 0 0
370 2 9.037250500884046 12.35043435554712 10.541561356718862 0 0 0
275 1 13.02806922616533 10.658933494724982 9.299474145407483 0 0 0
274 1 12.924518201203053 12.417021691180143 7.027289240818684 0 0 0
393 1 10.711823757720481 13.824925244733846 10.6048605624401 0 0 0
374 2 12.54014392901894 12.397835141716014 10.530902194799912 0 0 0
293 4 10.78953404602473 14.531127547751456 7.105267491203853 0 0 0
373 1 10.866932353217411 10.724216921976918 10.616565722644422 0 0 0
280 1 14.300436045115976 12.581438180519918 9.246922920407606 0 0 0
378 3 16.34075225736506 12.308040090375156 10.70766171874581 0 0 0
281 4 0.12237425884017347 14.51225855435382 6.831646743737408 0 0 0
297 1 14.420108256194874 14.081483374432416 7.159533401672211 0 0 0
377 2 14.466871802340744 10.383171888760176 10.653236989189287 0 0 0
201 2 0.27475917751865664 17.720677879778762 7.147307686985039 0 -1 0
284 1 0.5080166955113137 16.343431982522407 9.186345333483992 0 0 0
389 4 6.9096954150006615 14.150436469876427 10.575554880111094 0 0 0
283 3 3.5637660866111966 16.008526480584404 8.590443219903321 0 0 0
207 1 5.445974954105871 17.75063578410912 9.161053105201958 0 -1 0
309 1 7.0180146966588595 17.54085254805037 10.850107544251596 0 -1 0
292 2 6.992256464747628 16.040777766162318 8.839471189228865 0 0 0
211 3 8.791892226296902 17.80199514471509 8.804075597763537 0 -1 0
290 1 8.486050368767438 16.085463221759802 7.203912292974798 0 0 0
296 4 10.851079065602558 15.945842034204027 9.04518100265077 0 0 0
390 3 8.95522720158191 15.780816895611629 10.584659041839664 0 0 0
295 3 12.510117285595904 14.249661771757411 8.91869545405378 0 0 0
294 4 12.728104402085886 16.127857273898716 7.397261054803263 0 0 0
215 2 12.818471511010129 17.867960652213903 8.983352421098981 0 -1 0
394 3 12.535575713422498 16.05668682459441 10.657608447805256 0 0 0
317 2 14.351244706440877 17.79247824139106 10.678632657374804 0 -1 0
299 3 16.371146825008562 14.242530111570376 9.069945446656334 0 0 0
219 2 16.559013812708994 17.833771360057092 9.079149738120567 0 -1 0
300 3 14.52923104157517 15.88572314199519 9.071489289725077 0 0 0
398 1 16.588336344546434 15.941651578203857 10.7462981624953 0 0 0
302 4 2.225334779351278 1.7571720465628924 10.766052973692847 0 0 0
323 3 1.7037847773799917 3.283834518879376 12.511903785828043 0 0 0
303 3 1.9246243785765036 0.2441665324722191 12.711788678725007 0 0 0
308 4 3.854331165978225 1.837984240559768 12.56871862064011 0 0 0
306 3 5.413648607946941 2.0424782526314575 10.883859501813296 0 0 0
405 4 3.927727184954647 0.04988469871453505 14.198614819100769 0 0 0
312 3 7.372589835110439 1.5429505132539236 12.530423400627972 0 0 0
429 1 7.363727134722583 3.5634387338644595 14.329307615987217 0 0 0
316 1 10.412913225775794 1.2494883423228067 12.45690061217069 0 0 0
329 2 7.504730814373414 3.3129805923180458 11.024769868093351 0 0 0
331 1 9.039112697198615 3.4167290269488593 12.563103153629443 0 0 0
314 4 12.48788104999374 1.5487488642761023 10.775713871833908 0 0 0
333 2 10.736382293669605 3.3441346489128185 10.864739653450593 0 0 0
335 1 12.382676869691744 3.0448332176968647 12.677216356950668 0 0 0
337 4 14.490381176782215 3.1368867304113177 10.96444915877591 0 0 0
304 1 -0.06868651442735518 1.875733427904412 13.005494086984788 0 0 0
320 4 14.293454726751325 1.2691629659357277 12.644269603549018 0 0 0
339 3 15.971109915320522 2.9168064716872646 12.863018704247493 0 0 0
322 3 1.7238911698796842 5.289083684807946 10.934225796392447 0 0 0
328 4 3.5324481205804616 5.120915552559246 12.606794153814445 0 0 0
325 3 3.5652566718394425 3.6387742079908434 10.706186585466119 0 0 0
326 4 5.60017148231743 5.013564589983738 10.773286528999549 0 0 0
345 3 3.5340697789439166 6.9856575354956245 10.954942866900963 0 0 0
327 2 5.572411451584702 3.6140188841372325 12.67347386127851 0 0 0
349 4 7.136902115552219 7.112353529642189 10.640737593843104 0 0 0
332 4 7.273847408036815 5.544073625611391 12.351348724882538 0 0 0
426 4 5.531201199355916 5.3969955452887755 14.308035274026135 0 0 0
330 2 9.126625231713886 5.184965669343524 10.848168867949791 0 0 0
351 4 9.193530785616593 6.8862252061629405 12.40103601938465 0 0 0
336 4 10.88978118016348 5.419708570919656 12.63456238201795 0 0 0
334 2 12.562604932252961 5.056856868684899 10.93368463283963 0 0 0
434 3 12.545578179086355 5.36167282999412 14.236927662765806 0 0 0
353 3 10.988425237506801 6.960855330968641 10.61123229483489 0 0 0
324 1 17.88538148471472 5.259643146471216 12.662325016428076 -1 0 0
340 4 14.440951599193982 5.197567601362833 12.763100545790724 0 0 0
359 2 16.42733868692921 6.8477612739659115 12.376274523489355 0 0 0
343 1 1.6807745738166606 7.199940909697822 13.079749298763868 0 0 0
342 3 1.7527172092465797 8.666658042844636 10.61981284155214 0 0 0
347 1 5.444319495609787 7.196671521599696 12.648902423475226 0 0 0
348 3 3.7885088564566125 8.846588388864514 12.33203873312697 0 0 0
346 3 5.576564982214186 8.744594367820103 10.758989955234405 0 0 0
367 4 5.651782741991401 10.661145960386394 12.061445621975452 0 0 0
446 1 5.433407825533151 8.86045627908224 14.1464449474895 0 0 0
465 2 3.99688550689494 10.462941045475606 14.280993193799693 0 0 0
350 4 9.401814718162118 8.689889436741081 10.516818679633223 0 0 0
352 1 7.486798391567713 8.940580241358434 12.470852494127694 0 0 0
371 2 9.425177428513399 10.702425934545643 12.482231763986192 0 0 0
449 1 7.241515116607155 7.05468894764075 14.20496121188466 0 0 0
469 1 7.287608821647868 10.341718352513276 14.347356807232988 0 0 0
355 4 12.782098145837987 7.0097201526164765 12.605321058889942 0 0 0
356 4 11.067333457788154 8.466634369737697 12.65486157894951 0 0 0
454 3 12.621252818810142 8.562087847234498 14.381450314969715 0 0 0
361 1 -0.030826426882152785 10.582688402996709 10.401566022358708 0 0 0
457 4 14.775177681898203 7.208104217710015 14.046596220146823 0 0 0
357 2 14.281839134215865 6.829999338011847 10.833926995364026 0 0 0
344 3 0.061288599491074625 8.895995896481006 12.441695232710705 0 0 0
360 3 14.458217373097522 8.79745068069749 12.380652461247474 0 0 0
363 3 1.8228882380500866 10.76950084500919 12.136980160598792 0 0 0
362 4 1.6099190626093616 12.58209197211339 10.659854130475797 0 0 0
383 2 2.3521213269728944 13.500124018204327 12.82550378363474 0 0 0
364 4 0.02612933506212395 12.40285067608863 12.682179718551225 0 0 0
368 1 4.0738553660434444 12.451117593443392 12.183697976904044 0 0 0
466 1 5.527339653119979 12.178715050247643 14.197713015187192 0 0 0
387 3 5.298552155287995 14.31330738608065 12.583965594176473 0 0 0
372 1 7.3539158605944985 12.277981593101908 12.173928828758307 0 0 0
391 1 8.967917382738987 13.927359949946128 12.577818925545948 0 0 0
489 1 7.060389856427471 14.117119021556821 14.339226424123513 0 0 0
375 1 12.951941553558525 10.789042695821527 12.092167485769604 0 0 0
376 2 11.12039627821391 12.204941797686464 12.476187108579975 0 0 0
395 1 12.611487549129748 13.92332745047961 12.1181750067869 0 0 0
474 4 12.634227662396535 12.550113905706423 14.11290858008255 0 0 0
473 1 11.049585770221768 10.744843659995956 14.233961191648666 0 0 0
380 2 14.555730442456227 12.465738092836038 12.494030256388507 0 0 0
379 3 16.22946574404264 10.863918822841033 12.381624866493093 0 0 0
478 3 16.339222601696385 12.27802364000454 14.415864123839896 0 0 0
477 1 14.245588562004137 10.777333814985584 14.207625679307228 0 0 0
382 2 1.9629219422063406 16.369368925986784 10.758959819713722 0 0 0
301 1 0.25762083634428967 -0.04196796221754498 10.87882291694626 0 0 0
388 3 3.530782560273831 16.184592642530017 12.599037078402805 0 0 0
385 1 3.159680035783327 14.701202103833506 10.851857995887398 0 0 0
384 3 0.7121415281502301 15.96778410523428 12.490523022996038 0 0 0
386 2 5.088194897747313 15.999913316093714 10.49206637231757 0 0 0
305 1 3.7258880100862113 17.768595123786607 10.893615053112402 0 -1 0
307 2 5.456289774847693 0.08013085404543652 12.348796777937343 0 0 0
486 4 5.465521702206913 16.321031446052626 14.221677683265723 0 0 0
311 1 8.96049547585235 17.508604438122692 12.898482984630604 0 -1 0
392 3 7.1208827518440785 15.80882458226327 12.649502087894678 0 0 0
313 2 10.53439756530166 17.8102761922588 10.480499309830119 0 -1 0
409 2 7.260662229002446 -0.0902925716634887 14.23604760982372 0 0 0
315 3 12.427843919514778 17.7384859875021 12.363490761106876 0 -1 0
497 1 14.533143035257833 14.064740407851868 14.151205027416921 0 0 0
396 3 10.823380144627212 15.847658085264417 12.214608809349727 0 0 0
494 4 12.487169225830721 15.906573824555789 13.884735107742479 0 0 0
397 1 14.431855031797499 14.134862319270736 10.911068405604748 0 0 0
319 2 16.302554697299442 17.676599687453812 12.152684909620584 0 -1 0
400 1 14.467338533296175 16.13026511483694 12.132958570254026 0 0 0
399 3 16.348388481651757 14.307677684599835 12.4864372221763 0 0 0
417 1 14.399945122728704 17.598211797382838 14.385564056802657 0 -1 0
402 4 2.2026667036656593 1.7555845936076875 14.310186467220953 0 0 0
421 2 -0.026054196748617642 3.5033414670426937 14.225825550299412 0 0 0
404 2 0.18150306994479687 1.567095105908788 15.90575527060373 0 0 0
403 2 2.137750744504982 17.692512967640234 16.007166862154186 0 -1 0
406 2 5.650302327686656 2.0573120232139863 14.400630614877674 0 0 0
425 4 3.5972566201777654 3.7938496563195327 14.351797409100547 0 0 0
408 2 3.798550120985486 1.8441082755450666 16.406880659062878 0 0 0
410 2 8.97633963066535 1.88274564650283 14.257697974573343 0 0 0
412 2 7.449179495873567 1.8592472008744607 16.436061438119506 0 0 0
431 1 8.940566337844551 3.3493021861017445 16.312467871970558 0 0 0
416 1 10.472608212815961 1.4016250533042753 16.138096713668293 0 0 0
413 1 10.498433213931007 17.524455781256282 14.322532168614154 0 -1 0
37 3 14.042548936857479 3.3900670489252236 17.630870221897016 0 0 -1
33 4 10.835179752159906 3.314695109513978 -0.028116048913446587 0 0 0
433 1 10.794387658164846 3.2001902833033586 14.162312802263441 0 0 0
414 4 12.320426621806654 1.1458481247101917 14.533387306786771 0 0 0
420 3 14.066605756537461 1.4969586291119248 16.346212069197524 0 0 0
435 3 12.271592206948913 3.2414213748684775 16.123838617684655 0 0 0
18 4 16.320154417285522 1.680834386882183 17.838428224061673 0 0 -1
437 1 14.22696557296624 3.3971081468121866 14.789880015442678 0 0 0
418 1 16.066348745643435 1.5607024533350677 14.702039458021211 0 0 0
439 2 16.23455807334894 3.2789807147189425 15.743765159935258 0 0 0
422 2 1.6047403782747276 5.416223327352689 14.002484563216965 0 0 0
423 4 1.9138526661143178 3.6337917152790014 15.99933585661529 0 0 0
443 2 1.3696246724534986 7.142952617161421 15.78909289956569 0 0 0
45 3 3.6256624919812888 6.6983831295474205 17.700544484434346 0 0 -1
26 4 5.514211433749766 5.477950638267769 17.862744955253113 0 0 -1
427 2 5.592643661633605 3.7947222216382697 16.220791886961575 0 0 0
25 2 3.7051970941661607 3.7598831056764994 17.66657228399384 0 0 -1
428 4 3.4962340399343788 5.648239856419414 15.761343841921718 0 0 0
447 3 5.482276188070478 7.018194303261032 16.060670027724015 0 0 0
29 2 7.111177270672568 3.8555375477887592 0.11007151760271441 0 0 0
30 4 9.01992546303095 5.1606010399647575 0.22402593594949055 0 0 0
430 2 9.093148081006596 5.1752291246543685 14.202779782094975 0 0 0
432 1 7.432231932813196 5.512126384058249 16.215745519618054 0 0 0
34 1 12.46085765452796 5.1961005005285825 17.9003481106363 0 0 -1