LAMMPS data file via write_data, version 30 Mar 2026, timestep = 14000, units = metal

500 atoms
4 atom types

-0.1382046822561609 17.938204682256114 xlo xhi
-0.1382046822561609 17.938204682256114 ylo yhi
-0.1382046822561609 17.938204682256114 zlo zhi

Masses

1 59
2 52
3 55.8
4 58.7

Atoms # atomic

8 2 3.883177882993686 0.5373472311142797 1.7968288796822707 0 0 0
23 4 2.2292811996911457 2.4616052475583623 1.5992452206968437 0 0 0
102 2 2.121269861750059 0.7238310799759233 3.6178774419602364 0 0 0
125 1 3.68807204998806 2.598896100148669 3.6679905916231954 0 0 0
4 3 0.30659157117315405 0.6658237586540546 1.5995605569157307 0 0 0
121 1 0.1442718122997868 2.2298633822834235 3.4778774773883865 0 0 0
24 4 0.23483674873232507 4.338667118106606 1.710361405729987 0 0 0
25 3 3.993657206988159 2.55490933043385 -0.07472020288231818 0 0 0
21 3 0.18403383736361056 2.6924345437611326 0.09791914886583955 0 0 0
12 2 7.484626977739145 0.5085093192887168 1.7616095882899474 0 0 0
27 1 5.475632184503845 2.434830924315422 1.8075440825775153 0 0 0
106 2 5.4781900236542445 0.7006937559467674 3.612923126701617 0 0 0
129 2 7.373350557802789 2.523576189335433 3.4805988245397756 0 0 0
32 3 7.147337011160097 4.346476436399151 1.6502580384334646 0 0 0
110 3 9.17957178255501 0.5938444246372628 3.63342974206204 0 0 0
31 2 9.054988224296462 2.4859209931798247 1.614164508032614 0 0 0
16 3 10.864219625504047 0.5012029408821779 1.720513068430185 0 0 0
35 4 12.760177848048738 2.287699906542013 1.4848759929051099 0 0 0
114 3 12.577610908417235 0.49592561390553846 3.5094505738198145 0 0 0
133 3 11.05823897255744 2.566591097450098 3.328210346147076 0 0 0
36 4 10.717912409417428 4.371457042848856 1.6966256167961267 0 0 0
134 2 12.740315344535567 4.299507122760764 3.5726379582567995 0 0 0
10 1 8.997839840789952 0.5793876364603776 -0.04293953934708544 0 0 0
33 1 10.981535138797074 2.6605308816258595 -0.0705085080814007 0 0 0
14 2 12.72502264593894 0.39625067031272265 0.09609178679168925 0 0 0
20 2 14.405509263437324 0.20931482781088412 1.6565441108585621 0 0 0
39 1 16.476280893716762 2.1513917393242714 1.5805834816940576 0 0 0
118 2 16.44427602744596 0.5788450592726295 3.2420155421041312 0 0 0
137 3 14.663508132004006 2.2297588109112723 3.3549729730535227 0 0 0
40 2 14.571295722758483 4.24314614372754 1.8700536327364357 0 0 0
138 3 16.574949462743 4.062638914835232 3.4630957125296495 0 0 0
37 2 14.707483262272163 2.048703101293951 -0.08148623063792862 0 0 0
38 1 16.445063425257885 4.458936136085263 0.0007217394556483792 0 0 0
28 3 3.665572355077339 4.301106729014701 1.6461083323783559 0 0 0
43 4 2.019796071784341 6.299600428239617 1.6299616187396004 0 0 0
122 2 1.8890421115351446 4.281644989934507 3.419444303742949 0 0 0
145 1 3.705264190217773 6.141510791126741 3.475755751582932 0 0 0
142 3 1.8476531862793093 7.891919582561009 3.4218046362605175 0 0 0
141 4 0.29486508886728624 6.116950691038872 3.4753688303236623 0 0 0
48 2 3.7243730030602116 7.9771967285405445 1.6879796916807583 0 0 0
44 1 0.15509775026104794 8.068458193141444 1.8128436539422257 0 0 0
47 2 5.676614248372783 6.137651355305759 1.9445046104159887 0 0 0
126 4 5.503867957749343 4.1434488595192365 3.5530546750133145 0 0 0
149 4 7.333077608991986 6.094704357664916 3.690401200553146 0 0 0
146 2 5.68025788850786 7.958934693285768 3.679259667300319 0 0 0
52 3 7.360260930294811 8.102593496394045 1.9821916057037186 0 0 0
49 1 7.46369197711105 6.140274924199293 17.882533595455406 0 0 -1
51 1 9.204154225324707 6.203175663972489 1.8607186269951987 0 0 0
130 1 9.12228391433908 4.326963162968936 3.422972137871286 0 0 0
55 4 12.910787370458381 6.054732030931629 1.7299563654319665 0 0 0
153 2 11.158965576628752 6.141593830929157 3.3928886464284176 0 0 0
56 2 11.299505738024827 8.088965281346361 1.5916992489074973 0 0 0
154 1 12.865323036127092 7.891268986439748 3.3957567826442756 0 0 0
150 2 9.480779278906374 7.975210891198845 3.4881023420928687 0 0 0
34 1 12.96433197971268 4.306426541520745 0.13643215089022848 0 0 0
59 4 16.37884480141905 6.106743885797188 1.854850732831754 0 0 0
157 1 14.616009674555146 6.161580395940411 3.445829744421136 0 0 0
158 1 16.382324282935244 7.901002769915181 3.4834321602273457 0 0 0
60 4 14.65096490395838 7.9861017460071295 1.7439912387899166 0 0 0
57 2 14.700818663596333 6.035265204721456 -0.030606123084506817 0 0 0
58 1 16.477670390880895 7.683756343779181 -0.05800433832271293 0 0 0
63 2 2.148146503995438 9.743350904224123 1.6085392175931283 0 0 0
68 1 3.9095380354646254 11.589469560749846 1.9271196027289546 0 0 0
162 2 1.774514128437478 11.455727755669338 3.8246535575099387 0 0 0
165 3 3.7827504830970082 9.779294630446781 3.3738549007517418 0 0 0
64 1 0.27728591079918957 11.557421591951753 1.7910852299322533 0 0 0
161 3 0.3117416319478576 9.80577568628179 3.4197698135889856 0 0 0
185 1 3.919739517757777 13.337751735302124 3.67616096656239 0 0 0
62 3 2.080441767325393 11.641679238607251 -0.049726623840092216 0 0 0
81 4 0.0002144587521333563 13.194461072222063 0.21473437065081402 0 0 0
67 3 5.727592745520179 9.972952851942892 1.5928395599966436 0 0 0
72 2 7.524157399591596 11.44452425165607 1.8874293199229335 0 0 0
166 3 5.637166315766187 11.638138697047294 3.7392234761634913 0 0 0
169 1 7.475112475082885 9.654101830896202 3.7164343374197544 0 0 0
189 2 7.497455441637624 13.118521836421065 3.7924334175264813 0 0 0
66 1 6.0253277605332665 11.471831035396873 17.653239428224417 0 0 -1
71 1 9.325675634458104 9.607807702302468 1.8104131473300797 0 0 0
170 3 9.472671700583076 11.387547970587056 3.424467077515288 0 0 0
75 1 12.566010791484445 9.965157156827836 1.7342711454458763 0 0 0
76 2 10.83669911690257 11.825677455433784 1.8360875294369419 0 0 0
173 2 11.250563344601849 9.890076453149472 3.5608926261304914 0 0 0
174 4 12.82774973950387 11.537027193414033 3.624678596324867 0 0 0
70 1 9.230680176156612 11.792285668175118 -0.07554813841190366 0 0 0
79 2 16.588278589340753 9.795800880280446 1.7695290307752305 0 0 0
80 3 14.666701181632954 11.612754707753032 1.8858915905504832 0 0 0
177 1 14.784219693544928 9.75966053129342 3.468289636915526 0 0 0
178 4 16.436088680854745 11.381027980887835 3.6225229940750165 0 0 0
77 1 14.69955280036816 9.68352759985734 0.0945594030366026 0 0 0
78 4 16.35205372795057 11.553604846358596 -0.011218550567072327 0 0 0
3 3 2.0884493669719033 16.938268522350377 2.0537882756824253 0 -1 0
105 4 3.962961565476208 16.768958924376363 3.773622735015961 0 -1 0
83 3 2.2188516208395024 13.251572234760388 1.872393781235695 0 0 0
88 2 3.768981496537951 14.943240557889618 2.0712501125533054 0 0 0
182 2 2.0433269733511916 14.78694933319818 3.68395490779892 0 0 0
181 2 -0.022961047325054898 13.274913389114577 3.3805834455781594 0 0 0
84 1 0.47239010004155324 14.957649259190767 1.808344372734888 0 0 0
101 1 0.23496772419123363 17.019080519447904 3.4666251150900904 0 -1 0
1 1 0.18777769197643374 16.887009641972 0.041302496642096065 0 -1 0
109 3 7.436031924399296 16.915926948426055 3.7991601684912837 0 -1 0
7 3 5.5305485683570375 16.819741463320412 1.6041763246389247 0 -1 0
87 4 5.832472590058806 13.159207544713194 1.7295924967124412 0 0 0
92 2 7.2301457216040825 14.964120915183367 2.0486920398673845 0 0 0
186 4 5.863806029900158 15.18989278512642 3.8323548795107945 0 0 0
95 4 12.995237938668339 13.369131347999794 1.6538602930555644 0 0 0
113 2 11.16411389104699 16.712474302655224 3.4513244381417842 0 -1 0
11 1 9.093604219198868 16.773773340812248 1.7888199131918596 0 -1 0
15 4 12.705222247460043 16.536149518230765 1.7499365645701692 0 -1 0
190 3 9.292450870887885 15.157969111581126 3.5910119391672843 0 0 0
91 1 9.144340272332201 13.411058740006167 1.8094716532792632 0 0 0
96 3 11.010797581288507 14.782248269342919 1.6672351190513324 0 0 0
193 1 11.101008331042665 13.468002953820113 3.6930915117026664 0 0 0
194 2 12.70493007926714 15.037751555883608 3.491127336176811 0 0 0
94 3 12.879160198956402 15.250056346344312 17.733408347738674 0 0 -1
19 3 16.39356468142664 16.956301463181447 1.7197144985493142 0 -1 0
117 2 14.583022110652417 16.859234388660816 3.655515063979237 0 -1 0
99 4 16.388197664363773 13.328237781777421 1.9464251666547936 0 0 0
100 1 14.596244305873029 15.071008795245891 1.7537686406793436 0 0 0
197 2 14.59465470222168 13.11965107177428 3.8536710392151563 0 0 0
198 4 16.386983933523844 15.266279372068047 3.384305120208029 0 0 0
97 2 14.696949185248254 13.28889284501571 17.898620423837084 0 0 -1
108 3 3.8887362002828327 0.5514407290201244 5.553420790955792 0 0 0
123 4 1.8694775578110705 2.3243378159352956 5.34663242016626 0 0 0
202 2 2.026468993585172 0.711428816930073 7.285745176925614 0 0 0
221 4 0.000889963380562464 2.398690514475863 7.037190690605732 0 0 0
225 4 3.713868145337811 2.3243486191746934 7.205461365269849 0 0 0
104 3 0.23659794932712847 0.5025580130463563 5.294382810473719 0 0 0
128 4 3.7596094184822855 4.409876499311417 5.210924230920003 0 0 0
112 4 7.5359642553124395 0.7779392744015814 5.344554621444754 0 0 0
127 3 5.5589173919348935 2.587356196238703 5.211143812625811 0 0 0
206 3 5.829314393599623 0.8346573088244098 7.2052001922019695 0 0 0
229 3 7.467930575904599 2.5970096112506895 7.066946380916963 0 0 0
232 4 7.429546022818267 4.088025296015289 9.00607185824568 0 0 0
212 4 7.302812946566585 0.7633401999195764 9.221780423655563 0 0 0
227 4 5.55445715858109 2.5450057138236626 8.913105213944304 0 0 0
131 4 9.36187095946829 2.5361197222399956 5.422591699644602 0 0 0
231 4 9.294135316115586 2.3465847469239334 8.847966681637686 0 0 0
210 3 9.068271934043565 0.7256374633984202 7.171226287433759 0 0 0
116 4 11.044136574000715 0.7262959556111277 5.361814870671099 0 0 0
135 1 12.756231781408397 2.4392425676926113 5.294941644213704 0 0 0
214 1 12.732386841020283 0.9349502768120457 7.136269741095053 0 0 0
233 1 11.025165324081291 2.58746527255895 7.1020507884179604 0 0 0
234 2 12.881904717997791 4.263718564508474 7.164861264301273 0 0 0
236 3 11.04901310131834 4.435431298373753 8.961736981521051 0 0 0
216 4 11.008231717374573 0.7803666450373083 9.087017656890804 0 0 0
235 4 12.722313085197605 2.4821377744824287 8.953565697558982 0 0 0
120 2 14.65480466292586 0.6830782025619965 5.112164168870598 0 0 0
139 1 16.34598515038155 2.300898716062577 5.128644659351309 0 0 0
218 1 16.157548683319767 0.7480713036735198 6.968799550566306 0 0 0
237 4 14.488201960272953 2.4981587816892166 7.06931730251223 0 0 0
239 3 16.206650174182244 2.435775899336922 8.859091752680277 0 0 0
220 4 14.57775210179125 0.6846792041730204 9.102053163460251 0 0 0
124 3 0.2415739927772277 4.133879102832517 5.271931039304367 0 0 0
224 4 0.19324923709692848 4.103736733834488 8.82908348777994 0 0 0
143 3 1.9728904481122749 6.2175729974585865 5.311514846967422 0 0 0
222 2 2.027117438312444 4.0630443905691225 7.160370556585235 0 0 0
245 2 3.515451230328693 6.042315882876995 7.0924577153748745 0 0 0
228 4 3.7864422101145054 4.16165316807739 8.9367157975388 0 0 0
241 4 0.2599434270311266 5.828358572884951 7.021276565828486 0 0 0
242 4 1.8744307099017554 7.7254392491011465 7.127884370624615 0 0 0
148 2 3.5693126160399853 8.239663662062044 5.356390837239841 0 0 0
144 1 0.1108729522087551 8.031220284812424 5.10956345981815 0 0 0
244 1 0.10397944352182478 7.396673404092909 8.844325162309344 0 0 0
243 2 2.091413837597368 5.976042618254827 8.888072925022957 0 0 0
132 3 7.395102523885538 4.337104327173424 5.28245344662751 0 0 0
147 1 5.531219860892139 5.996697109354591 5.438494510403538 0 0 0
226 3 5.40323386018122 4.069274371031993 7.178472796238668 0 0 0
249 4 7.501262089546263 6.170371121828441 7.1677899528740285 0 0 0
152 3 7.408826951298686 7.940781743168133 5.3633421511549395 0 0 0
252 4 7.306344676803861 7.668545316277392 9.087569261565601 0 0 0
246 2 5.488763831000161 7.731614293303791 6.95325901978985 0 0 0
230 4 9.270139476392814 4.346432805117601 7.353406514936906 0 0 0
151 1 9.239251543647661 6.230559990288678 5.172102307430689 0 0 0
136 3 10.918908178016258 4.2568245788105825 5.225026312927687 0 0 0
155 4 12.672923428492485 6.1482753061654725 5.106753631333869 0 0 0
253 4 11.047079934386103 6.383883069719449 7.040190090775343 0 0 0
156 3 11.263750254057221 7.986220479953385 5.336915312108848 0 0 0
254 2 12.926077904076934 8.074046161569182 7.180527540577067 0 0 0
250 4 9.091822292259257 8.012774499760312 7.382686150791661 0 0 0
256 2 11.104187106088744 8.077635843008816 8.823878347690075 0 0 0
251 4 9.354946758596226 6.208992490477868 8.911722220044908 0 0 0
140 3 14.697778012378551 4.421443350560983 5.157596445121838 0 0 0
159 4 16.757476797848668 5.976199764682974 5.235667163531048 0 0 0
238 4 16.63653132587435 4.119920004958233 7.010049355891743 0 0 0
257 2 14.849117745444861 5.932999659609703 7.204194807618352 0 0 0
258 3 16.436461552209998 7.601331097429135 7.163872623045193 0 0 0
160 4 14.499895510061304 7.718513233862677 5.098806365991213 0 0 0
260 3 14.493630344422993 8.058907228937727 9.219722364563012 0 0 0
163 3 1.8444067088339697 9.677381474144513 5.487294354295387 0 0 0
168 2 3.7381754186352625 11.32119214228392 5.504549753329202 0 0 0
262 4 1.7271680551128108 11.518784083647969 7.392908988368864 0 0 0
265 4 3.3248455896813556 9.386232070555746 7.25876111125568 0 0 0
263 2 1.859759110324961 9.50012456667763 9.142446869809717 0 0 0
268 2 3.797123917036523 11.591825222764193 8.946269112942359 0 0 0
164 2 -0.06079370801550606 11.338726127764604 5.40363352522776 0 0 0
261 2 -0.021094838085261358 9.389204050391765 7.265470958239162 0 0 0
281 4 17.756973809889224 13.546517456078874 7.502361110191843 -1 0 0
283 3 1.9081363786927592 13.488521605445586 8.797481579662955 0 0 0
167 1 5.5640275991545405 9.75925846076612 5.447193005773181 0 0 0
172 2 7.320296184323433 11.295477931450728 5.340578736272702 0 0 0
266 3 5.532937392406482 11.442368159169908 7.300454302456391 0 0 0
269 3 7.3705809890300875 9.60211523242014 7.289423326758933 0 0 0
267 4 5.334581018180704 9.777694015120712 8.920855241870512 0 0 0
291 3 9.180109764230668 13.414204880394616 8.740144903544753 0 0 0
171 1 9.326198470953946 9.604565377159677 5.34636447524727 0 0 0
270 4 9.199712370434902 11.390275993122287 7.220214075342439 0 0 0
175 1 12.89137022111206 9.703982925300014 5.4446693710927265 0 0 0
176 3 10.953693017489416 11.350421249789367 5.322341433816394 0 0 0
273 1 11.029688680629615 9.843873906476128 7.15379475089505 0 0 0
274 3 12.97188014190612 11.564037650027926 7.237155240870743 0 0 0
275 4 12.675840494752487 9.88489878150973 9.146811777494603 0 0 0
276 1 11.099111981043457 11.584824384797745 8.828635118223527 0 0 0
191 3 9.13656662929194 13.040240798397521 5.460379016211289 0 0 0
195 2 12.856785486798346 13.217910881777538 5.417479631540488 0 0 0
179 4 16.30195079554354 9.665186327957192 5.438129457421832 0 0 0
180 1 14.698307446062723 11.36022539586339 5.536369154414345 0 0 0
277 2 14.728499485666799 9.685684701169787 7.295448999116525 0 0 0
278 2 16.501610823046143 11.489621792565478 7.26483370770679 0 0 0
280 1 14.87350619847782 11.315587323232654 8.95912545007393 0 0 0
279 4 16.488673949250803 9.52513074970108 9.423385405985528 0 0 0
201 3 0.20703454025511114 16.86281477586885 7.001933871625157 0 -1 0
205 4 3.794016786502223 16.872048773972253 7.23814683658325 0 -1 0
103 3 2.040465312119691 17.081305770093415 5.46140580621112 0 -1 0
183 2 1.6209350400402756 13.099191424593506 5.596093766692545 0 0 0
188 4 3.832488796317608 15.143071613800817 5.54255287364847 0 0 0
282 4 1.6776544809535023 15.27285131727956 6.918727612011466 0 0 0
285 4 3.611472310727425 13.29646363103849 7.029402299870415 0 0 0
288 4 4.121660392618223 14.908420814189515 8.862621633685228 0 0 0
284 2 0.06663550223773196 15.151697054815466 9.04766245477025 0 0 0
184 4 0.051905301628861256 15.071796271708934 5.3706150910531685 0 0 0
209 4 7.287072651768461 17.14193677617598 7.261243761635266 0 -1 0
107 1 5.722376282632537 17.041356784435727 5.523947044904129 0 -1 0
187 2 5.828643477711465 13.408669257513468 5.428893145087326 0 0 0
192 2 7.830978069874847 15.067507283644595 5.443188790148314 0 0 0
286 2 5.7248360352613865 15.118679337053809 6.948857160585962 0 0 0
289 4 7.578729137728309 13.28421875281576 7.171649183152058 0 0 0
207 4 5.551986963731255 17.063669620334025 8.941698262576425 0 -1 0
215 1 12.87106462201413 17.007930448316557 8.853843092105521 0 -1 0
213 3 10.995611768599897 17.10874082719119 7.191953473890394 0 -1 0
111 3 9.378451490863462 16.844626237784794 5.296383588260168 0 -1 0
115 2 12.932190213743194 16.94099609724396 5.286928532686208 0 -1 0
211 3 9.124197869374655 16.987750723165114 8.861755801989464 0 -1 0
290 1 9.37331416431092 15.296951651131593 7.235775565029015 0 0 0
196 1 11.078089123846196 15.227917096439723 5.384241292138732 0 0 0
293 1 11.041472726132893 13.364341083337155 7.058411340426225 0 0 0
294 3 12.853137921740187 15.230983358717342 7.258134612055101 0 0 0
296 3 11.097486425589139 15.209298685511722 8.943179352562115 0 0 0
199 1 16.5042521307532 13.270873513493392 5.374531331927185 0 0 0
217 2 14.726044053742452 16.74467622481717 7.025292054418762 0 -1 0
219 3 16.306809188575173 16.729021262512347 8.657021816193181 0 -1 0
119 4 16.6722574139977 16.733254526998188 5.2381970726639775 0 -1 0
200 2 14.426486393991683 14.96812336404653 5.026949236474317 0 0 0
297 3 14.799861466866114 13.250753562752777 7.13846198800591 0 0 0
298 2 16.349430284821537 15.17251559715152 7.025570228385127 0 0 0
300 2 14.70600195048073 14.8957403440526 8.8984137931031 0 0 0
299 4 16.258592635073192 13.302492155847046 9.110735206915443 0 0 0
223 3 2.1222753235606597 2.490338947649597 9.006610639140593 0 0 0
208 2 3.7641376921978194 0.5552232524646418 8.955762286008614 0 0 0
204 2 -0.012832103376984733 0.2924660839260053 8.857701309416337 0 0 0
302 3 2.2642939772598134 0.5944052332909423 10.844600769699044 0 0 0
308 2 3.6798790895054228 0.5760131647299255 12.662650564454784 0 0 0
323 3 2.186568364599239 2.4382413653804647 12.650182675465498 0 0 0
325 1 3.887581809024115 2.53440107090025 10.77516110832961 0 0 0
304 3 0.17218535224459497 0.6410067674984173 12.53439807471229 0 0 0
321 4 0.25558431389216046 2.341779088884063 10.559363036374963 0 0 0
324 1 0.2844451135349454 4.005242474989267 12.444627395531949 0 0 0
306 4 5.403453493911403 0.6747015113664011 10.726375464841214 0 0 0
312 3 7.315210476187666 0.7522432581325253 12.538011262939728 0 0 0
327 1 5.463215383878885 2.4598563342039474 12.609550086139762 0 0 0
329 4 7.4139383523673175 2.53303461125958 10.875143377334009 0 0 0
331 2 9.29357860211951 2.3816416006943277 12.44623663426313 0 0 0
310 4 9.31771869834802 0.786736972525244 10.79600463918786 0 0 0
314 4 12.613772202957891 0.6756452526019073 10.671577642709302 0 0 0
316 3 11.02900654850792 0.4111896855913393 12.54301871375247 0 0 0
333 4 10.912876696727695 2.5154627124495077 10.68680380598679 0 0 0
335 1 12.773982201738761 2.647351633918139 12.856987673443518 0 0 0
336 1 11.010323568114154 4.382717038980712 12.49060853963614 0 0 0
330 3 9.2996036404508 4.335209794769985 10.665303326934179 0 0 0
334 4 12.867347057415872 4.354129181901313 10.76690743262333 0 0 0
240 4 14.39591855838188 3.9894176511053834 9.066471721658932 0 0 0
318 4 16.38637298516756 0.7636799584922759 10.725020009770706 0 0 0
320 3 14.56296329792975 0.6223084506561948 12.408700416682226 0 0 0
337 3 14.558017604358078 2.5395048240129148 10.739568752035437 0 0 0
339 2 16.342506916614646 2.3133321223230454 12.667153719897437 0 0 0
340 4 14.816510837963687 4.314932992456199 12.527133027274585 0 0 0
338 2 16.627988078579065 3.8311824768885905 10.74025077962697 0 0 0
248 1 3.7094216321659483 7.727669620302609 8.912011052323704 0 0 0
322 1 1.9485653427523846 4.084178166795243 10.633305607928111 0 0 0
328 4 3.7922530964456445 4.345258036799302 12.50043903943978 0 0 0
343 2 2.1341528813332027 6.082900067569404 12.414798413510148 0 0 0
345 4 3.832743410466375 5.960925966823942 10.627127255126895 0 0 0
341 1 0.15941935838569288 5.673313335812044 10.750634037848238 0 0 0
348 1 3.663873701668946 7.993741789673058 12.587335922957378 0 0 0
342 1 1.904187745341118 7.685571176631123 10.629703783239716 0 0 0
344 4 0.09924232970657212 7.913823675286622 12.674077794126521 0 0 0
247 1 5.544133076822268 6.042273283330933 8.839438682532249 0 0 0
326 2 5.590255438238933 4.3092924524214045 10.733532296499195 0 0 0
332 3 7.412086727219238 4.33398633636951 12.61506105241333 0 0 0
347 1 5.379269643338249 6.019714276016286 12.586447171214468 0 0 0
349 3 7.534940281094631 5.992292667572919 10.796966866455426 0 0 0
352 4 7.230712644582959 7.875549001472718 12.581217208920208 0 0 0
346 2 5.358592866836855 7.788841544725779 10.844287765046676 0 0 0
255 3 12.796612338089794 6.237987831706498 8.715511880301273 0 0 0
351 3 9.339767584178945 6.0755130465787355 12.43813897792725 0 0 0
353 3 11.158696452499724 6.138979615016789 10.769703418049325 0 0 0
355 1 12.796976874813017 6.066908846583433 12.584284343635108 0 0 0
356 3 10.973608610881778 7.954462783465496 12.725495268094297 0 0 0
354 2 12.721755729580465 7.845595913211425 10.7782894604155 0 0 0
350 1 9.309099794805235 7.925934234818513 10.80701879202175 0 0 0
259 4 16.433745173968546 5.8220067795006925 8.915498457863508 0 0 0
357 4 14.642607521027415 5.867110157799186 10.786297573146168 0 0 0
359 3 16.387529947910288 6.102880219862341 12.509261416625774 0 0 0
360 1 14.462192010182962 7.94882440368383 12.523388607036546 0 0 0
358 2 16.412422876961678 7.53586222431293 10.788792160327667 0 0 0
362 1 2.0317129987634144 11.499228735113629 10.526572526617212 0 0 0
363 2 1.8641038181851868 9.813861424809227 12.367622608158046 0 0 0
365 1 3.5917877559605422 9.788423764415088 10.6618072261127 0 0 0
368 3 3.8581614355191136 11.471365385191156 12.282747979445922 0 0 0
361 2 0.20510099245783653 9.516242162829913 10.831443690957704 0 0 0
364 1 -0.022653390124260944 11.577722264662617 12.703648229017594 0 0 0
383 3 1.8028598177676614 13.149750652400124 12.415021711774788 0 0 0
385 1 3.536686756310769 13.259647426824516 10.772569701874692 0 0 0
381 3 0.17595491111964878 13.100414386284879 10.899199115429822 0 0 0
272 1 7.410726036785475 11.392601615420055 9.031185214450375 0 0 0
366 1 5.538017570660036 11.449312286567235 10.567352678624413 0 0 0
367 3 5.714053461077597 9.84695712182558 12.436611578519516 0 0 0
369 3 7.312305042718061 9.549583958027261 10.746773241112821 0 0 0
372 2 7.344977454904826 11.730696403315088 12.343253457785138 0 0 0
271 3 9.240691920761924 9.78801813476692 9.037696746440748 0 0 0
371 4 8.92505769179062 9.615275893692276 12.5645528317189 0 0 0
370 3 9.300136945915227 11.628946305013791 10.612592309046063 0 0 0
373 4 11.06753816145588 9.838211811827822 10.803415722281589 0 0 0
374 3 12.915022597989298 11.692342529737413 10.56950893245655 0 0 0
375 1 12.771638479060531 9.605737540776222 12.53763440449672 0 0 0
376 1 11.041740547910049 11.492901798124691 12.500612196936324 0 0 0
264 2 0.017267126324969906 11.376595495724589 9.175508532869856 0 0 0
377 1 14.521216935580327 9.870950665603413 10.88599610541626 0 0 0
378 3 16.310256958740574 11.53994884813604 10.874870194828851 0 0 0
379 2 16.528165096746548 9.645397828465052 12.605163833930638 0 0 0
380 4 14.65692032025562 11.57453287242952 12.406989300071116 0 0 0
203 3 2.144423190130089 16.67288497913922 8.919249758803046 0 -1 0
305 1 3.9196707129755444 16.650387702020062 10.6330938623241 0 -1 0
303 2 1.9419802021337724 16.887183104734802 12.54850266976107 0 -1 0
382 1 1.7985674204684499 14.989942054437225 10.6298948556306 0 0 0
388 3 3.8482274578939912 14.975654495600608 12.555728953340694 0 0 0
301 2 0.23088403246712824 16.871048217920695 10.677717139590284 0 -1 0
384 3 0.15299735578932594 15.132167123094487 12.526232837097488 0 0 0
292 4 7.501568345793201 15.077164919220039 8.83751671671163 0 0 0
287 2 5.8077820181729445 13.319969407870474 8.568853370717182 0 0 0
389 2 7.523134656550031 13.334095709924364 10.674590049690355 0 0 0
307 1 5.659495412519038 16.94676478040777 12.245487777979516 0 -1 0
309 1 7.251723868656883 17.068455976242547 10.62251787058499 0 -1 0
386 2 5.521545769910563 14.96418822265872 10.8316268017969 0 0 0
387 3 5.673621863827483 13.231759022536899 12.547453107372318 0 0 0
392 3 7.452623214417734 15.081914402095876 12.598366692664731 0 0 0
295 1 12.721230602149951 13.31607184174617 8.984372862128318 0 0 0
390 1 9.226273315086365 15.398393989542658 10.734705798137956 0 0 0
313 2 11.042798455132623 16.843337281432234 10.768634158625774 0 -1 0
311 3 9.004157056720674 17.057165117445102 12.579187552201544 0 -1 0
391 4 9.253996539765053 13.454853081913996 12.45602636509002 0 0 0
315 1 12.896420550932001 16.747130111786944 12.472878887601965 0 -1 0
393 4 11.06604882857756 13.327230405969331 10.761825052922099 0 0 0
394 4 12.816964040263315 15.24681265279201 10.646253569238208 0 0 0
395 4 12.773158592197637 13.487445452826295 12.611517074599893 0 0 0
396 1 10.990793942392152 15.071011911638003 12.406333116290629 0 0 0
319 4 16.505574412026874 16.89105527172859 12.647317873397792 0 -1 0
317 4 14.746101253828634 16.76112858669044 10.568908363910944 0 -1 0
397 1 14.546689472815363 13.42192703048471 10.907180341939862 0 0 0
398 2 16.378368602879917 14.959611199639133 10.805447191026387 0 0 0
399 2 16.45815735545738 13.319930154553486 12.458393977726882 0 0 0
400 2 14.804886119613421 15.149234959723557 12.561500409253535 0 0 0
2 4 2.037314662929427 0.7240129772850871 17.849233049504555 0 0 -1
402 1 1.9400799324124378 0.600179922922783 14.423434916843837 0 0 0
408 3 3.8321531764520373 0.4318790769508437 16.193331775626213 0 0 0
423 4 2.0367949791401907 2.4373600679904404 16.25568939571305 0 0 0
425 4 3.7603329655722835 2.270429761229063 14.410492324930456 0 0 0
404 1 -0.045147974066441804 0.6051342039073653 16.147131338439905 0 0 0
421 1 0.22463799353149294 2.3348552597345926 14.126696817451794 0 0 0
422 3 2.032537854956367 4.186514733402901 14.446118597750074 0 0 0
424 4 0.2541381195528133 4.5015233915111414 16.174895173828162 0 0 0
6 3 5.60607382990492 0.6684229408409278 -0.08672131936434246 0 0 0
29 3 7.1892178310825585 2.406722598637926 -0.05753704860319568 0 0 0
406 1 5.553934897601742 0.5803044286532275 14.314208645378908 0 0 0
412 2 7.260797635473306 0.7983839686568343 16.226479347656316 0 0 0
427 3 5.623470750978785 2.67558247108192 16.04157534679411 0 0 0
429 3 7.216125890489397 2.432797791171444 14.324940410113687 0 0 0
432 3 7.384288447324717 4.426912080732318 16.06538118743712 0 0 0
410 1 9.163176107685718 0.7098174376917593 14.312226618940045 0 0 0
431 3 9.196254956191225 2.4185356161507947 16.276820262919884 0 0 0
414 2 12.80166434800484 0.6878691006517632 14.399789871769183 0 0 0
416 2 11.035217130510343 0.41597261560124843 16.12815827286792 0 0 0
433 2 10.936236389333347 2.3569801192243527 14.402631783869623 0 0 0
435 2 12.841970494137016 2.5406384979082435 16.53796950970245 0 0 0
30 2 9.139603911008699 4.4032097871533775 0.029994149212386356 0 0 0
18 4 16.647434892899888 0.4458789043143223 -0.09197148678204682 0 0 0
418 4 16.449506009141587 0.5875064880336217 14.341154372935948 0 0 0
420 4 14.407002051461037 0.5950740983179608 16.088618018779698 0 0 0
437 4 14.682538843947933 2.1178058701520492 14.362126242725035 0 0 0
439 2 16.416699712011216 2.5383820757328097 16.389899673773165 0 0 0
438 1 16.748137900216626 4.232094169343156 14.27812866231347 0 0 0
22 3 2.0566703551658545 4.5260350303689805 -0.07190090599713272 0 0 0
45 3 4.028562808276993 6.261165134195488 17.793460169445986 0 0 -1
42 3 2.0379726264758786 7.961841155589642 -0.05190800483841135 0 0 0
428 3 3.6498816734955555 4.203841633606628 16.138742373955424 0 0 0
443 2 2.1379386605963475 6.060833257319238 16.154436789918677 0 0 0
445 2 3.732586195962683 6.16758314801928 14.387817924997169 0 0 0
441 4 0.07616038642098705 6.094829911987286 14.198435533677442 0 0 0
41 1 0.06267829890341042 6.162597921229271 0.17128662813198087 0 0 0
442 4 1.9794471027690372 8.156549813395724 14.344889258757954 0 0 0
448 2 4.044324946988083 8.074045668581036 15.953095145087458 0 0 0
444 4 0.4162721374146249 7.923821582496718 16.146621013365746 0 0 0
46 3 5.516205275632052 8.04070089087433 0.17649583873195251 0 0 0
26 1 5.5661819594285165 4.513269366212552 17.670923276587697 0 0 -1
426 2 5.353063705771407 4.22207444112355 14.302446744139667 0 0 0
447 1 5.5260840335714585 6.101167412659525 15.937945786362247 0 0 0
449 2 7.423442489459339 5.935455750537358 14.301746662652668 0 0 0
446 3 5.470772378994258 7.79490951516247 14.185980993315326 0 0 0
452 2 7.220105648669126 7.829983357791659 15.950723280590688 0 0 0
50 2 9.367137182397592 8.097976915293096 17.93454872114745 0 0 -1
434 1 12.850614968802729 4.497943957820691 14.393798318747592 0 0 0
430 2 9.091385926934752 4.202424425426488 14.357881490873584 0 0 0
53 2 10.896214570225899 5.927331936389756 -0.0714530858158818 0 0 0
451 3 9.277456414548682 6.186856895180054 16.15622270949074 0 0 0
436 1 10.792406248915682 4.239400843344967 16.097049462547318 0 0 0
453 2 10.830087347494793 6.167733506850383 14.307254599513772 0 0 0
455 1 12.80341155524668 5.989722328655525 16.219546152486416 0 0 0
54 4 13.124227428671189 7.723808429077863 17.79660045691884 0 0 -1
456 1 11.069170424051753 7.9741549622614905 16.461347635932512 0 0 0
450 1 9.200153211852378 7.950912633311033 14.578976095723288 0 0 0
454 1 12.747779833209842 7.777635829232158 14.40580640989818 0 0 0
440 4 14.599811039760231 4.112900895098226 16.12653913800286 0 0 0
457 1 14.667933022698422 6.03836002054173 14.410302762357082 0 0 0
459 4 16.421080372058313 6.082608043453154 16.36423064237332 0 0 0
458 3 16.44481537693376 7.830867864748178 14.338250547330869 0 0 0
460 1 14.502981407615426 7.883219154651689 15.930202186093643 0 0 0
65 2 3.9135221161428717 9.98780356561217 0.11592518833539084 0 0 0
462 3 2.064523150562037 11.567159003820668 14.436136717921674 0 0 0
463 4 2.1193193112145283 9.763306292215185 16.308352466212703 0 0 0
465 1 3.7177540804563343 9.955907436241217 14.271259407814123 0 0 0
468 3 3.876123803010416 11.486012063191875 16.252370403549925 0 0 0