ITEM: TIMESTEP
15000
ITEM: NUMBER OF ATOMS
54000
ITEM: BOX BOUNDS pp pp pp
0.0000000000000000e+00 8.5659000000000006e+01
0.0000000000000000e+00 8.5659000000000006e+01
0.0000000000000000e+00 8.5659000000000006e+01
ITEM: ATOMS id type x y z
2 1 1.42077 1.50014 1.4601
1863 1 2.78804 2.88093 2.80721
1803 1 2.85489 0.000569677 2.78386
63 1 2.79631 2.80231 -0.0354328
4 1 4.23756 1.39726 1.39536
6 1 7.07672 1.40169 1.42423
1865 1 5.64066 2.89193 2.84392
1805 1 5.56385 0.0195496 2.75773
65 1 5.62843 2.8655 0.0482775
8 1 9.84243 1.46077 1.36335
1867 1 8.51399 2.91677 2.91089
1807 1 8.45252 -0.0262745 2.80499
10 1 12.7906 1.44824 1.44726
1869 1 11.3876 2.87077 2.79725
1871 1 14.1965 2.76573 2.84604
11 1 14.2599 0.0285515 0.0262604
1809 1 11.2324 0.041472 2.74502
1811 1 14.1301 0.041307 2.80532
9 1 11.2898 0.066274 0.0227709
12 1 15.627 1.42423 1.30136
1873 1 17.0939 2.85749 2.81653
1813 1 16.9944 0.0106042 2.78712
13 1 17.0725 -0.0852951 -0.0383134
14 1 18.3866 1.38023 1.41804
16 1 21.3832 1.37587 1.31152
1875 1 20.0473 2.82619 2.94208
1815 1 19.8423 -0.0620254 2.77609
75 1 20.0228 2.85255 0.0081152
15 1 19.9299 -0.0973424 -0.0143926
18 1 24.3413 1.45628 1.29047
1877 1 22.8286 2.80382 2.72326
1879 1 25.6185 2.86691 2.79695
1817 1 22.8465 -0.00283569 2.86171
79 1 25.774 2.86836 -0.146103
19 1 25.7474 0.0310649 0.00129673
1819 1 25.5288 0.0139686 2.82437
77 1 22.8119 2.90772 0.00649955
20 1 27.1466 1.38325 1.32653
1881 1 28.6188 3.03225 2.87802
1821 1 28.4801 0.039436 2.75616
21 1 28.4519 0.00683903 -0.127612
22 1 29.9184 1.49448 1.38028
24 1 32.8144 1.38207 1.537
1883 1 31.4349 2.85889 2.90349
83 1 31.5189 2.89408 0.0569167
23 1 31.3575 -0.002835 -0.0306867
26 1 35.5898 1.32998 1.40923
1885 1 34.3378 2.89718 2.8463
1887 1 37.0478 2.81908 2.79271
1827 1 36.9837 0.0101498 2.79311
87 1 37.027 2.80816 -0.0178403
27 1 36.9949 -0.0347489 0.0846427
25 1 34.2169 -0.036372 -0.000455132
28 1 38.4449 1.4939 1.36136
1889 1 39.8682 2.84749 2.87102
89 1 39.9963 2.73942 -0.131007
30 1 41.2321 1.48517 1.39224
32 1 44.0874 1.41981 1.43451
1891 1 42.5852 2.82132 2.8097
31 1 42.8314 0.0223418 -0.0657983
91 1 42.769 2.74517 -0.0834223
34 1 47.0746 1.34688 1.35252
1893 1 45.6427 2.7222 2.80666
33 1 45.6834 -0.0298762 -0.00298548
93 1 45.6847 2.7984 -0.00345073
36 1 50.002 1.51296 1.26257
97 1 51.498 2.84323 -0.0715683
1895 1 48.5557 2.77441 2.86328
1897 1 51.4332 2.88654 2.86651
1837 1 51.5102 0.0639443 2.88545
35 1 48.4953 -0.0628637 -0.075672
37 1 51.4554 -0.184827 0.0202247
38 1 52.8203 1.46553 1.33202
40 1 55.6563 1.36596 1.40507
1899 1 54.1997 2.91251 2.64308
1839 1 54.1851 -0.0831044 2.86648
99 1 54.3293 2.80535 -0.0190589
42 1 58.5621 1.45098 1.39135
1901 1 57.2136 2.88465 2.83759
101 1 57.0206 2.84361 0.0806908
44 1 61.436 1.41455 1.32692
1903 1 60.0572 3.03829 2.72091
1905 1 62.7963 2.91463 2.68573
105 1 62.9244 2.87515 -0.0900186
1845 1 62.8631 0.0190583 2.76434
45 1 62.8657 0.0424206 -0.0655449
46 1 64.3416 1.43617 1.3125
1907 1 65.7296 2.88816 2.83069
1847 1 65.6108 -0.0334558 2.9146
48 1 67.0743 1.30048 1.4843
50 1 69.9418 1.5243 1.4763
1909 1 68.4215 2.78862 2.914
52 1 72.8235 1.44971 1.41924
1911 1 71.3434 2.84001 2.85083
1913 1 74.2851 2.98604 2.88993
1851 1 71.4589 0.0420191 2.82272
113 1 74.1762 2.78473 -0.0980102
54 1 75.6324 1.37963 1.46978
1915 1 77.05 2.90538 2.81101
1855 1 77.066 -0.00283756 2.8252
55 1 77.0725 -0.073297 -0.0571897
115 1 77.0033 2.71059 6.54211e-05
56 1 78.4967 1.28473 1.36444
58 1 81.3568 1.38115 1.4754
1917 1 79.9673 2.82205 2.82574
1857 1 79.9882 -0.0116989 2.84516
117 1 79.8787 2.6441 0.133798
57 1 79.9652 -0.136664 0.0104283
1861 1 85.577 2.91484 2.89619
60 1 84.072 1.48743 1.47349
1919 1 82.7741 2.86415 2.96196
1859 1 82.7337 -0.022537 2.83421
59 1 82.6853 0.0782263 0.0467859
119 1 82.7463 2.84501 -0.000668892
62 1 1.3336 4.2066 1.35223
122 1 1.45284 7.14339 1.4224
1923 1 2.85279 5.80223 2.73335
123 1 2.82176 5.72367 -0.0025908
64 1 4.25268 4.14583 1.36248
66 1 7.08595 4.35266 1.37443
124 1 4.238 7.18546 1.39232
126 1 7.05573 7.24335 1.29263
1925 1 5.59423 5.72016 2.94273
68 1 10.0428 4.31558 1.4398
128 1 9.96479 7.24141 1.51543
1927 1 8.58713 5.84126 2.72028
70 1 12.7172 4.23707 1.4126
130 1 12.7949 7.05978 1.3548
1929 1 11.4021 5.7211 2.77698
1931 1 14.119 5.72097 2.82941
131 1 14.157 5.65931 -0.106126
72 1 15.603 4.38076 1.41054
132 1 15.7193 7.06587 1.39429
134 1 18.5341 6.89198 1.3715
1933 1 17.108 5.56402 2.86728
74 1 18.6827 4.22202 1.46652
76 1 21.4699 4.22538 1.50756
136 1 21.3604 7.05703 1.42227
1935 1 19.9847 5.6113 2.83725
135 1 19.9785 5.54931 -0.107086
78 1 24.2386 4.30972 1.40625
138 1 24.2135 7.13483 1.48208
1937 1 22.8687 5.73367 3.00999
1939 1 25.6975 5.71007 2.73893
139 1 25.6859 5.72387 -0.00601957
80 1 27.0348 4.26072 1.32868
140 1 27.0885 7.19116 1.39328
1941 1 28.5224 5.69362 2.87474
141 1 28.5183 5.7598 -0.0300969
82 1 30.0711 4.32668 1.43033
84 1 32.8149 4.34235 1.43027
142 1 29.8793 7.28237 1.4807
144 1 32.892 7.10588 1.37207
1943 1 31.3367 5.80945 2.73102
143 1 31.4185 5.84093 -0.00894625
86 1 35.7297 4.30399 1.39254
146 1 35.7735 7.19496 1.47256
1945 1 34.2947 5.83709 2.79451
1947 1 37.0814 5.65244 2.95032
147 1 37.173 5.74817 0.0627685
88 1 38.4953 4.16323 1.48531
148 1 38.5578 7.14148 1.52015
1949 1 39.939 5.66882 2.82859
149 1 39.9196 5.67297 0.0141597
90 1 41.3214 4.17633 1.37393
92 1 44.1921 4.13568 1.40184
150 1 41.455 7.00739 1.4898
152 1 44.1696 7.02114 1.41489
1951 1 42.8203 5.6125 2.84763
151 1 42.8273 5.61014 -0.0358891
94 1 47.0918 4.22265 1.4483
154 1 47.0893 7.02721 1.43669
1953 1 45.5728 5.58139 2.8777
153 1 45.6063 5.69552 -0.0184552
96 1 49.9154 4.24632 1.39365
156 1 49.9698 7.05889 1.32774
1955 1 48.5943 5.6199 2.85893
1957 1 51.2357 5.67181 2.76901
98 1 52.8211 4.25892 1.2274
100 1 55.7601 4.38658 1.38696
158 1 52.8843 6.97253 1.47927
159 1 54.2973 5.65996 -0.0743173
160 1 55.6922 7.1363 1.4293
1959 1 54.2957 5.71075 2.87079
102 1 58.5175 4.31304 1.29485
162 1 58.61 7.11981 1.39323
1961 1 57.1352 5.84639 2.85095
104 1 61.3768 4.31824 1.32078
164 1 61.3696 7.25026 1.40211
1963 1 59.9438 5.67956 2.82041
1965 1 62.8411 5.84905 2.65857
106 1 64.2085 4.29093 1.41371
166 1 64.3735 7.33555 1.27861
1967 1 65.7258 5.8787 2.68689
108 1 67.1625 4.21435 1.41019
110 1 69.8501 4.18178 1.35587
168 1 67.0099 7.17559 1.28742
170 1 69.9203 7.03774 1.41312
1969 1 68.497 5.74381 2.86046
169 1 68.5155 5.72179 -0.0117354
112 1 72.772 4.13955 1.25639
172 1 72.8027 7.10251 1.44537
1971 1 71.2533 5.69802 2.73811
1973 1 74.1363 5.64238 2.76899
173 1 74.2081 5.72771 -0.0862338
114 1 75.532 4.26046 1.36075
174 1 75.6987 7.1871 1.36128
1975 1 77.0097 5.64986 2.83817
175 1 77.0217 5.70715 0.0824766
116 1 78.5285 4.19223 1.42098
118 1 81.3399 4.25954 1.47847
176 1 78.4569 7.1094 1.46096
178 1 81.3829 7.1524 1.39282
1977 1 79.9593 5.80481 2.79001
1921 1 85.741 5.84558 2.87409
120 1 84.2129 4.32728 1.49459
180 1 84.271 7.09415 1.54553
1979 1 82.7803 5.78259 2.84707
179 1 82.8251 5.75355 0.0709663
182 1 1.45939 9.97935 1.38218
1983 1 2.85449 8.46797 2.85181
183 1 2.86905 8.568 -0.131012
1981 1 0.047029 8.66056 2.73246
184 1 4.16571 9.97102 1.35828
186 1 7.00838 9.99721 1.40766
1985 1 5.62167 8.60187 2.77308
188 1 9.91391 10.0329 1.33179
1987 1 8.50868 8.64931 2.85021
187 1 8.46776 8.58646 0.000386491
190 1 12.8124 10.0533 1.36978
1989 1 11.3554 8.67536 2.82081
1991 1 14.2155 8.54513 2.76363
189 1 11.4785 8.62935 -0.0606449
191 1 14.2426 8.49408 0.0787496
192 1 15.6906 9.84984 1.417
1993 1 17.0795 8.42929 2.85495
194 1 18.5568 10.0748 1.36757
196 1 21.3755 10.0205 1.48644
1995 1 19.8466 8.52982 2.8538
198 1 24.2922 9.95094 1.57991
1997 1 22.7352 8.54974 2.96327
1999 1 25.7103 8.5305 2.84314
199 1 25.6459 8.73914 0.116907
200 1 27.2031 10.0172 1.48956
2001 1 28.5465 8.50071 2.84588
201 1 28.474 8.51248 0.0727783
202 1 30.0111 9.93278 1.471
204 1 32.8454 9.99743 1.34598
2003 1 31.5287 8.56211 2.91509
206 1 35.7379 10.0711 1.32688
2005 1 34.3129 8.57216 2.83518
2007 1 37.1776 8.70258 2.81436
207 1 37.2764 8.60453 0.0760802
208 1 38.5636 10.0387 1.33641
2009 1 39.952 8.61107 2.74125
209 1 39.985 8.4903 0.0278528
210 1 41.4463 10.0014 1.29822
212 1 44.3003 9.99749 1.33139
2011 1 42.8263 8.57139 2.82973
211 1 42.7736 8.4966 -0.0495619
214 1 47.0154 9.89837 1.30571
2013 1 45.6945 8.56732 2.69401
216 1 49.9519 9.8833 1.32684
2015 1 48.5678 8.47648 2.77788
2017 1 51.3952 8.51282 2.72871
217 1 51.401 8.61626 -0.131147
218 1 52.9078 10.0752 1.3628
220 1 55.6811 10.0328 1.34693
2019 1 54.2167 8.5919 2.78125
222 1 58.6318 9.96909 1.38084
2021 1 57.1659 8.54904 2.78444
224 1 61.4056 10.0322 1.46732
2023 1 60.018 8.69575 2.8822
2025 1 62.8329 8.62903 2.90373
226 1 64.3293 10.1551 1.38
2027 1 65.7533 8.59236 2.8032
227 1 65.6554 8.69978 -0.041843
228 1 67.2088 10.0192 1.43469
229 1 68.4263 8.43849 -0.111124
230 1 69.9236 9.92226 1.35298
2029 1 68.4879 8.59385 2.81963
232 1 72.82 9.89259 1.36927
2031 1 71.2906 8.44478 2.81564
2033 1 74.1964 8.5991 2.89309
233 1 74.2236 8.48109 -0.081632
234 1 75.7152 9.96988 1.36565
2035 1 77.0212 8.55615 2.87239
235 1 77.176 8.54723 -0.084749
236 1 78.4458 10.0291 1.42638
238 1 81.2941 9.98484 1.56848
2037 1 79.9281 8.55136 2.86225
237 1 79.9776 8.50814 0.0338003
240 1 84.1386 9.99464 1.47758
2039 1 82.7931 8.61316 2.89201
181 1 85.6529 8.59218 -0.0241209
239 1 82.8212 8.50979 0.0739512
242 1 1.37672 12.9331 1.38411
2043 1 2.8431 11.5215 2.80214
2103 1 2.87743 14.3616 2.75791
2101 1 0.0104969 14.2758 2.86035
301 1 -0.126079 14.3608 -0.0455323
243 1 2.73389 11.4156 -0.132337
244 1 4.22012 12.7815 1.3496
246 1 7.12588 12.7695 1.25639
2045 1 5.61335 11.3921 2.7604
2105 1 5.71099 14.2028 2.69149
305 1 5.6061 14.2566 -0.0923636
245 1 5.65048 11.3479 -0.159395
248 1 9.97007 12.8045 1.34831
2047 1 8.55553 11.3978 2.79945
2107 1 8.41879 14.2448 2.77699
247 1 8.49128 11.3105 -0.12895
307 1 8.48675 14.2823 -0.0957953
250 1 12.7373 12.8231 1.29716
2049 1 11.3815 11.3933 2.88988
2051 1 14.3118 11.4026 2.65676
2109 1 11.3623 14.0847 2.79424
2111 1 14.3255 14.1669 2.78276
249 1 11.3787 11.4016 -0.101185
309 1 11.3599 14.1761 -0.167841
311 1 14.3129 14.198 -0.0045439
252 1 15.6821 12.7563 1.36568
254 1 18.6125 12.7956 1.42356
2053 1 17.1816 11.433 2.7692
2113 1 17.1394 14.2617 2.77184
313 1 17.1956 14.2055 0.00828747
256 1 21.5069 12.7666 1.45431
2055 1 19.9197 11.3386 2.80545
2115 1 19.9512 14.4208 2.81829
258 1 24.1825 12.7388 1.50332
319 1 25.6386 14.1166 -0.0580282
2057 1 22.7614 11.2831 3.00163
2059 1 25.8139 11.3457 2.90996
2117 1 22.7842 14.3708 2.80239
2119 1 25.667 14.2062 2.84695
257 1 22.8247 11.4468 0.125938
317 1 22.7753 14.1932 -0.000259045
260 1 27.1332 12.8668 1.49496
2061 1 28.5088 11.5252 2.89318
2121 1 28.7139 14.3268 2.89845
261 1 28.5268 11.3608 0.110989
262 1 30.0174 12.9299 1.55456
264 1 32.7553 12.7934 1.47839
2063 1 31.4138 11.2889 2.85163
2123 1 31.4301 14.1925 2.87371
263 1 31.2747 11.472 -0.0235565
323 1 31.449 14.2507 -0.00538755
266 1 35.6803 12.7869 1.4562
2065 1 34.201 11.4007 2.80301
2067 1 37.1406 11.4147 2.89631
2125 1 34.1735 14.2231 2.71296
2127 1 37.1637 14.2828 2.80734
265 1 34.2841 11.4087 -0.198496
267 1 37.057 11.3895 -0.0897618
268 1 38.4783 12.8111 1.45595
2069 1 40.0471 11.4338 2.77588
2129 1 39.9704 14.216 2.79758
269 1 39.9778 11.4394 0.02512
329 1 39.9693 14.3684 0.0234187
270 1 41.5055 12.8951 1.38414
272 1 44.1912 12.9184 1.37276
2071 1 42.8436 11.4234 2.79991
2131 1 42.8341 14.3637 2.80096
271 1 42.8301 11.496 0.069694
274 1 47.1571 12.8733 1.28141
2073 1 45.7091 11.4469 2.77373
2133 1 45.6565 14.2951 2.75457
273 1 45.7676 11.4704 -0.0445151
333 1 45.696 14.3363 -0.0419723
276 1 49.9165 12.8085 1.45721
2075 1 48.4877 11.3713 2.65641
2077 1 51.2816 11.316 2.8308
2135 1 48.4856 14.1941 2.73331
2137 1 51.4777 14.1969 2.81845
335 1 48.5601 14.4191 -0.211389
278 1 52.8283 12.7453 1.37157
280 1 55.7912 12.7657 1.44786
2079 1 54.4094 11.3534 2.92955
2139 1 54.3809 14.1918 2.95512
282 1 58.6726 12.8002 1.45991
2081 1 57.1892 11.3034 2.81835
2141 1 57.1627 14.1995 2.77628
284 1 61.4377 12.9396 1.50044
2083 1 60.0643 11.4618 2.83635
2085 1 62.7778 11.4927 2.90287
2143 1 60.1006 14.2967 2.88631
2145 1 62.8651 14.2858 2.90237
285 1 62.6769 11.4738 -0.0950779
286 1 64.2149 12.8392 1.42885
2087 1 65.656 11.4719 2.9059
2147 1 65.676 14.2872 2.81356
347 1 65.7391 14.2546 -0.0347381
287 1 65.6848 11.3729 -0.0417347
288 1 67.2034 12.8091 1.44893
290 1 70.0444 12.8403 1.40153
2089 1 68.6112 11.3808 2.82855
2149 1 68.6551 14.2715 2.83364
289 1 68.5986 11.4874 0.0640054
349 1 68.6897 14.3197 -0.00665363
292 1 72.9089 12.8586 1.4971
2091 1 71.4702 11.4427 2.72994
2093 1 74.2726 11.3527 2.84671
2151 1 71.4403 14.3437 2.81495
2153 1 74.1967 14.2575 2.94589
351 1 71.3997 14.1972 0.0888962
291 1 71.3037 11.3839 -0.117802
293 1 74.1146 11.3687 -0.0595159
294 1 75.5821 12.7729 1.44642
2095 1 77.0157 11.4309 2.88783
2155 1 76.9726 14.1167 2.7537
355 1 77.2533 14.1813 0.0889205
295 1 77.122 11.41 0.0255885
296 1 78.6061 12.7666 1.4749
298 1 81.2906 12.8602 1.48886
2097 1 79.853 11.3347 3.00244
2157 1 79.8972 14.2849 3.01143
297 1 79.9277 11.3511 0.0437639
357 1 79.8867 14.3169 0.0356334
2041 1 85.7364 11.4625 2.82258
300 1 84.1467 12.776 1.46427
2099 1 82.8525 11.3792 2.89336
2159 1 82.7999 14.2441 2.80232
299 1 82.7457 11.4573 0.066147
359 1 82.639 14.208 0.114176
241 1 85.5632 11.4369 0.071975
302 1 1.44064 15.6744 1.46825
362 1 1.38136 18.6481 1.39871
2163 1 2.71944 17.1249 2.87181
363 1 2.69908 17.1813 0.0960721
304 1 4.27922 15.6446 1.33054
306 1 7.15806 15.708 1.41225
364 1 4.19363 18.6034 1.44382
2165 1 5.65807 17.119 2.79854
365 1 5.61736 17.128 0.00168678
366 1 7.00164 18.5744 1.37533
308 1 9.95981 15.6034 1.41149
368 1 9.86815 18.5197 1.36465
2167 1 8.52759 17.1713 2.65135
310 1 12.8396 15.5304 1.43135
2169 1 11.3056 17.0056 2.75569
2171 1 14.2182 17.0476 2.7917
370 1 12.8399 18.4028 1.40213
312 1 15.7492 15.7244 1.23872
2173 1 17.159 17.1365 2.81356
374 1 18.5715 18.5856 1.44699
372 1 15.6358 18.6791 1.50495
314 1 18.4737 15.708 1.43288
373 1 17.1857 17.1466 0.0082025
316 1 21.288 15.7957 1.44174
2175 1 19.8695 17.1445 2.94256
376 1 21.3413 18.5207 1.4866
375 1 19.9528 17.1519 -0.0506369
318 1 24.1494 15.6263 1.35486
2177 1 22.7385 17.2468 2.8919
2179 1 25.5849 17.1354 2.73662
377 1 22.8012 17.1599 -0.0762012
378 1 24.1959 18.6059 1.43946
379 1 25.6846 17.0811 -0.109595
320 1 27.0244 15.5745 1.37308
2181 1 28.4315 17.1484 2.74976
380 1 27.0392 18.4879 1.35389
381 1 28.4967 17.0609 -0.00551115
322 1 30.0517 15.7301 1.43212
324 1 32.823 15.717 1.3742
2183 1 31.4125 17.0616 2.82124
382 1 29.9355 18.5127 1.36156
384 1 32.8471 18.4814 1.49031
326 1 35.6888 15.7414 1.51239
2185 1 34.2017 17.1427 2.88704
2187 1 37.1709 17.0925 2.90312
385 1 34.3453 17.0739 0.052564
386 1 35.8041 18.5911 1.54877
387 1 37.1876 17.1619 0.103709
328 1 38.5847 15.6828 1.41633
2189 1 39.9597 17.189 2.81582
389 1 40.0586 17.3093 -0.0365109
330 1 41.4492 15.8497 1.43797
332 1 44.331 15.8017 1.44854
392 1 44.1625 18.5756 1.43548
2191 1 42.8576 17.1447 2.90018
390 1 41.3968 18.6558 1.48744
391 1 42.786 17.2337 -0.0119369
334 1 47.0646 15.7614 1.29279
2193 1 45.6459 17.2193 2.84618
394 1 47.0755 18.5439 1.32649
336 1 49.9338 15.5963 1.40694
2195 1 48.5268 17.069 2.82013
2197 1 51.3417 17.1364 2.78393
396 1 49.8263 18.6444 1.42903
338 1 52.9464 15.5991 1.49629
340 1 55.7699 15.5965 1.4058
2199 1 54.3738 17.0636 2.93747
398 1 52.8841 18.4952 1.46324
400 1 55.6842 18.6064 1.37267
342 1 58.5497 15.5663 1.47805
402 1 58.5495 18.6138 1.4946
2201 1 57.0778 17.1905 2.85949
344 1 61.4099 15.7247 1.54734
404 1 61.2623 18.6203 1.44621
2203 1 59.8876 17.1252 3.01764
2205 1 62.9446 17.215 2.81913
346 1 64.2301 15.6568 1.33056
406 1 64.2614 18.5608 1.34414
2207 1 65.6494 17.0331 2.76545
407 1 65.7989 17.0457 -0.0509009
348 1 67.3119 15.7263 1.33712
350 1 70.0546 15.8154 1.42099
2209 1 68.4965 17.1913 2.75925
410 1 69.8973 18.6513 1.54147
409 1 68.568 17.2772 -0.0446953
352 1 72.8337 15.7825 1.47798
412 1 72.6019 18.6157 1.41916
2211 1 71.3147 17.2409 2.85628
2213 1 74.1632 17.1514 3.05084
411 1 71.3491 17.1836 -0.040183
413 1 74.257 17.1292 -0.129859
354 1 75.5786 15.746 1.40523
2215 1 76.9486 17.1687 2.83368
414 1 75.6055 18.5264 1.40188
415 1 77.1123 17.1021 0.0225705
356 1 78.568 15.8001 1.59192
358 1 81.3791 15.7465 1.46509
416 1 78.555 18.5373 1.44785
2217 1 79.9175 17.1906 2.95488
418 1 81.265 18.4624 1.46306
417 1 79.9724 17.1085 0.0653786
2161 1 85.6761 17.1447 2.86225
361 1 85.6216 17.1244 0.0520521
360 1 84.2416 15.7252 1.47142
2219 1 82.7291 17.0102 2.91594
419 1 82.8098 17.1563 -0.0688278
420 1 84.1526 18.5627 1.48452
422 1 1.37704 21.4398 1.55337
2223 1 2.76778 19.9503 2.9815
2221 1 -0.108208 19.9316 2.89704
424 1 4.14022 21.3326 1.4421
426 1 7.10068 21.3312 1.40832
2225 1 5.59338 20.032 2.81689
428 1 9.88833 21.3937 1.38442
2227 1 8.60408 19.9284 2.76995
427 1 8.46451 20.0468 -0.0766236
430 1 12.733 21.5101 1.4864
2229 1 11.3533 19.8959 2.82393
2231 1 14.1674 19.961 2.90415
431 1 14.2084 19.9374 0.0172914
432 1 15.6541 21.3979 1.38852
2233 1 17.0214 20.0079 2.78426
433 1 17.0603 19.9126 -0.0130052
434 1 18.5456 21.4222 1.33672
436 1 21.3161 21.4154 1.45967
2235 1 19.9381 20.0191 2.86462
435 1 19.9746 20.0593 0.0276605
438 1 24.3012 21.3564 1.35059
2237 1 22.7485 20.0154 2.84738
2239 1 25.7002 19.9854 2.74334
437 1 22.8374 19.9596 0.000664969
440 1 27.0901 21.3936 1.31547
2241 1 28.4972 19.9787 2.81951
442 1 30.0597 21.4196 1.52832
444 1 32.8213 21.3159 1.50386
2243 1 31.4419 19.9456 2.80906
446 1 35.7734 21.3352 1.46674
2245 1 34.3511 19.961 2.9482
2247 1 37.0804 19.9793 2.9744
388 1 38.583 18.6387 1.53201
448 1 38.5942 21.3665 1.51706
2249 1 40.0024 20.0172 2.83437
450 1 41.627 21.3621 1.401
452 1 44.288 21.4906 1.41442
2251 1 42.9352 20.0305 2.85273
451 1 42.8886 20.0084 0.0420397
454 1 47.1313 21.3909 1.39744
2253 1 45.6955 19.9264 2.84123
453 1 45.5839 19.9518 0.030116
456 1 49.9453 21.4818 1.54021
2255 1 48.5507 19.9335 2.78614
2257 1 51.427 19.9272 2.78594
458 1 52.8057 21.4913 1.42511
460 1 55.5959 21.4471 1.47389
2259 1 54.1917 20.0209 2.89694
462 1 58.6083 21.3836 1.38345
2261 1 57.063 20.0732 2.85884
464 1 61.348 21.4239 1.40672
2263 1 59.87 20.0274 2.92222
2265 1 62.8928 19.9924 2.84651
465 1 62.7996 20.0277 0.0205329
408 1 67.1468 18.5922 1.33418
466 1 64.192 21.4253 1.35244
2267 1 65.6032 20.1577 2.68002
467 1 65.7375 20.0098 -0.0390124
468 1 67.1536 21.6151 1.42502
470 1 69.9721 21.4594 1.53241
2269 1 68.5086 20.1078 2.76774
469 1 68.6713 20.098 -0.0132919
472 1 72.8497 21.3649 1.41299
2271 1 71.3868 20.0029 2.8342
2273 1 74.2057 19.8363 2.86408
471 1 71.263 19.9644 0.0502302
474 1 75.7379 21.3972 1.32563
2275 1 76.9953 19.9729 2.93625
475 1 77.0574 19.9144 0.0493432
476 1 78.5804 21.3339 1.45158
478 1 81.4498 21.4888 1.44025
2277 1 79.9815 19.9815 2.85847
477 1 79.9549 20.0529 0.101776
421 1 85.5493 19.9805 0.0462045
480 1 84.2491 21.3673 1.48222
2279 1 82.7187 19.8822 2.92569
479 1 82.8193 19.9804 0.0348048
482 1 1.43643 24.3004 1.45292
2283 1 2.81587 22.7725 2.83486
2343 1 2.76735 25.6374 2.99761
2281 1 -0.0734466 22.9236 2.86311
484 1 4.28345 24.2724 1.50415
486 1 7.06491 24.3257 1.41812
2285 1 5.68951 22.7746 2.92266
2345 1 5.63493 25.7219 2.89138
488 1 9.93798 24.231 1.49419
2287 1 8.46392 22.8397 2.85367
2347 1 8.37608 25.6812 2.79211
547 1 8.53837 25.6555 -0.00794369
490 1 12.9533 24.277 1.35303
2289 1 11.3673 22.9146 2.89885
2291 1 14.3434 22.7252 2.80223
2349 1 11.3883 25.7394 2.7469
2351 1 14.184 25.7247 2.82324
549 1 11.3347 25.6585 0.0823856
491 1 14.2609 22.6972 -0.0855729
489 1 11.3551 22.7752 0.0696389
492 1 15.5633 24.2829 1.36345
494 1 18.5657 24.3292 1.46054
2293 1 17.1014 22.8143 2.89138
2353 1 17.1663 25.5774 2.9081
553 1 17.0792 25.6856 0.0740885
493 1 17.105 22.839 0.0026079
496 1 21.5111 24.3048 1.32243
2295 1 20.0132 22.8866 2.82651
2355 1 19.8037 25.8092 2.85497
555 1 19.9859 25.7382 -0.0259496
495 1 19.9795 22.921 0.0617371
498 1 24.1858 24.2718 1.46579
499 1 25.6689 22.7334 -0.00279316
2297 1 22.783 22.8151 2.68255
2299 1 25.7042 22.7564 2.82504
2357 1 22.8185 25.6958 2.75117
2359 1 25.6659 25.7084 2.75867
557 1 22.8143 25.7758 -0.239715
500 1 26.9882 24.1656 1.3055
2301 1 28.4945 22.8736 2.73422
2361 1 28.4531 25.652 2.73193
501 1 28.4965 22.7489 0.0534075
561 1 28.541 25.7084 -0.0949394
502 1 30.037 24.2418 1.36924
504 1 32.7739 24.2587 1.46615
2303 1 31.3503 22.8457 2.85142
2363 1 31.3073 25.696 2.84372
563 1 31.5061 25.7239 -0.0547151
503 1 31.4301 22.8434 0.0690919
506 1 35.6046 24.2473 1.52497
2305 1 34.3372 22.7759 2.87483
2365 1 34.1378 25.6338 2.87148
2367 1 37.1371 25.6175 2.80109
2307 1 37.1897 22.831 2.92948
565 1 34.1536 25.6228 0.0425728
508 1 38.6554 24.2881 1.44605
2309 1 40.0588 22.9326 2.76679
2369 1 40.0421 25.6577 2.90483
569 1 40.0241 25.6774 0.0695233
509 1 40.0436 22.8114 0.0115303
510 1 41.5319 24.3151 1.43655
512 1 44.206 24.2909 1.39906
2311 1 42.8591 22.8932 2.88318
2371 1 42.864 25.7706 2.9322
511 1 42.8179 22.8622 -0.0525868
514 1 47.0759 24.2387 1.40597
2313 1 45.6409 22.8837 2.78354
2373 1 45.749 25.7422 2.77402
516 1 50.0015 24.1984 1.44882
2315 1 48.5248 22.8103 2.90325
2317 1 51.4411 22.9152 2.86872
2375 1 48.6219 25.639 2.90479
2377 1 51.2867 25.6959 2.91429
577 1 51.3354 25.7531 -0.081658
518 1 52.7815 24.3024 1.3918
2319 1 54.2279 22.8544 2.78254
2379 1 54.2049 25.8014 2.84584
520 1 55.7858 24.3458 1.34249
522 1 58.3974 24.3138 1.37611
2321 1 57.0621 22.9572 2.79091
2381 1 57.0969 25.7083 2.87312
581 1 57.1048 25.7257 -0.0430374
524 1 61.3625 24.3464 1.4103
2323 1 60.0708 22.9037 2.65296
2325 1 62.8345 22.8301 2.81535
2383 1 59.9888 25.6771 2.79969
2385 1 62.8538 25.7 2.79329
526 1 64.1641 24.2288 1.22298
2327 1 65.6209 22.8554 2.82114
2387 1 65.6315 25.6444 2.89031
527 1 65.5934 22.8093 -0.107005
528 1 67.1144 24.2921 1.36059
530 1 69.9636 24.2378 1.40948
2329 1 68.4865 23.0548 2.7915
2389 1 68.446 25.7062 2.82971
532 1 72.7984 24.2863 1.34052
2331 1 71.4359 22.7927 2.831
2333 1 74.1669 22.7496 2.84647
2391 1 71.4513 25.7284 2.75855
2393 1 74.2108 25.8119 2.79467
593 1 74.1461 25.6085 -0.212786
531 1 71.3068 22.7876 0.0979871
534 1 75.6146 24.1693 1.41114
2335 1 77.1429 22.7821 2.71774
2395 1 77.0087 25.7764 2.8036
595 1 77.0549 25.6662 -0.00547598
536 1 78.5196 24.2462 1.36044
538 1 81.3914 24.1779 1.45155
2337 1 79.8895 22.8469 2.94771
2397 1 79.9124 25.6734 2.83271
597 1 79.8105 25.65 -0.0017654
2341 1 85.6595 25.7087 2.90197
540 1 84.0529 24.1791 1.4731
2339 1 82.7471 22.7611 2.93206
2399 1 82.7766 25.6817 2.7742
542 1 1.36459 27.1046 1.38786
2403 1 2.76597 28.5959 2.84592
601 1 -0.000379982 28.4886 0.0105654
544 1 4.20271 27.0281 1.49305
546 1 7.16685 27.1558 1.36848
2405 1 5.66238 28.6007 2.84413
605 1 5.66238 28.5465 -0.0917023
548 1 9.97275 27.0712 1.49372
2407 1 8.55456 28.5942 2.87501
607 1 8.60518 28.5576 0.02457
550 1 12.8906 27.2598 1.31916
2409 1 11.4991 28.5836 2.87968
2411 1 14.2405 28.6422 2.83023
609 1 11.4533 28.4541 -0.133737
611 1 14.2858 28.5108 -0.168696
552 1 15.7194 27.1312 1.39373
554 1 18.4877 27.0558 1.37384
2413 1 17.1595 28.6102 2.81617
613 1 17.2812 28.6237 -0.0162393
556 1 21.3546 27.1389 1.38711
2415 1 19.8278 28.5341 2.83181
615 1 20.0561 28.4611 -0.0755938
558 1 24.2547 27.1681 1.35056
2417 1 22.8539 28.5522 2.76292
2419 1 25.7014 28.4266 2.8266
619 1 25.7213 28.5438 -0.171501
560 1 27.0558 27.0761 1.29329
2421 1 28.5397 28.527 2.82147
562 1 29.8647 27.171 1.36729
564 1 32.7697 27.0821 1.49273
2423 1 31.4676 28.5001 2.95324
623 1 31.3886 28.5247 0.0441458
566 1 35.6468 27.0543 1.46381
2425 1 34.2866 28.5053 2.89228
2427 1 37.068 28.4988 2.85547
568 1 38.5891 27.0385 1.40279
2429 1 39.985 28.5114 2.85609
629 1 39.8981 28.5397 -0.0168696
570 1 41.5277 27.0482 1.39121
572 1 44.2429 27.174 1.42424
2431 1 42.7879 28.6651 2.78593
574 1 47.157 27.121 1.40945
2433 1 45.7548 28.6086 2.83458
633 1 45.7324 28.6009 0.0844143
576 1 50.0472 27.1769 1.48013
2435 1 48.5219 28.4697 2.9985
2437 1 51.3605 28.4788 2.84887
637 1 51.4953 28.7463 -0.0159726
578 1 52.809 27.1498 1.32753
2439 1 54.1236 28.5705 2.87986
580 1 55.7121 27.0267 1.39883
582 1 58.5302 27.1078 1.37903
2441 1 57.0946 28.5202 2.76296
641 1 56.9431 28.6458 0.00316711
584 1 61.4536 27.1671 1.45065
2443 1 60.012 28.5366 2.76952
2445 1 62.7479 28.6515 2.74056
645 1 62.8204 28.4886 -0.0245979
586 1 64.2329 27.1607 1.48178
2447 1 65.5877 28.5976 2.78645
647 1 65.6359 28.6095 -0.0336893
588 1 67.0811 27.0342 1.40676
590 1 69.8967 27.0523 1.39866
2449 1 68.5097 28.5543 2.76045
592 1 72.7723 27.1528 1.39667
2451 1 71.3747 28.544 2.78847
2453 1 74.1945 28.6285 2.90493
653 1 74.1531 28.556 -0.100153
594 1 75.6877 27.1722 1.28996
2455 1 76.9801 28.6726 2.86571
655 1 77.0859 28.5997 -0.115165
596 1 78.4815 27.1864 1.4059
598 1 81.2793 27.1235 1.29239
2457 1 79.8385 28.6864 2.75735
2401 1 85.5986 28.6225 2.80992
600 1 84.3382 27.0544 1.39156
2459 1 82.7605 28.4844 2.7981
602 1 1.30018 30.1375 1.44399
662 1 1.3133 32.7894 1.31577
2463 1 2.74806 31.4098 2.89742
2461 1 0.0800851 31.4829 2.88276
604 1 4.28904 30.0399 1.47994
606 1 7.19556 30.0217 1.46667
664 1 4.26208 32.8766 1.38107
666 1 7.08232 32.7244 1.42513
2465 1 5.66937 31.4049 2.90071
608 1 10.0734 29.9418 1.54256
668 1 9.93136 32.8315 1.37539
2467 1 8.52883 31.3909 2.81534
610 1 12.8695 29.9834 1.34737
670 1 12.8438 32.7432 1.4286
2469 1 11.4593 31.3048 2.79044
2471 1 14.2808 31.319 2.71706
671 1 14.3358 31.3202 -0.037058
612 1 15.7317 29.9487 1.32265
614 1 18.6297 30.0137 1.36759
672 1 15.7009 32.8378 1.34329
2473 1 17.1335 31.3797 2.8543
674 1 18.3946 32.9167 1.45062
616 1 21.2068 29.8844 1.45679
676 1 21.3912 32.7946 1.39332
2475 1 19.8722 31.4288 2.75165
618 1 24.3026 29.9177 1.29601
678 1 24.186 32.8623 1.3495
2477 1 22.8057 31.385 2.80029
2479 1 25.5799 31.2898 2.83227
677 1 22.812 31.4051 0.00430024
679 1 25.5735 31.4023 -0.0866552
620 1 27.0287 29.9544 1.35628
680 1 27.0523 32.7251 1.42807
2481 1 28.4529 31.3342 2.9146
681 1 28.5031 31.3915 -0.0484508
622 1 29.954 29.9379 1.51163
624 1 32.7935 29.868 1.49405
682 1 29.8904 32.819 1.3999
684 1 32.8028 32.7565 1.35492
2483 1 31.3836 31.452 2.90069
626 1 35.762 29.9363 1.4317
686 1 35.7226 32.797 1.43797
2485 1 34.2358 31.3482 2.84747
2487 1 37.1792 31.437 2.89797
687 1 37.1898 31.4415 -0.00636494
685 1 34.2401 31.3946 0.081259
628 1 38.5806 29.996 1.45773
688 1 38.5873 32.8274 1.42031
2489 1 40.0205 31.363 2.78216
630 1 41.3856 30.021 1.29079
632 1 44.2265 29.9277 1.40574
690 1 41.4084 32.8305 1.40971
692 1 44.2701 32.821 1.43084
2491 1 42.8206 31.4271 2.83891
634 1 47.1 30.0955 1.49076
694 1 47.0546 32.7865 1.45355
2493 1 45.7225 31.4242 2.92176
693 1 45.6687 31.5034 0.111008
695 1 48.6081 31.3882 0.0162568
636 1 49.9967 29.9473 1.4238
696 1 50.0103 32.8392 1.51296
2495 1 48.5362 31.3762 2.82134
2497 1 51.3842 31.3725 2.81268
638 1 52.8534 30.0616 1.48278
640 1 55.6792 29.9823 1.52693
698 1 52.8181 32.8344 1.40701
700 1 55.662 32.8692 1.40845
2499 1 54.3911 31.4549 2.82621
642 1 58.4775 29.9916 1.41478
702 1 58.4608 32.8552 1.29666
2501 1 57.1127 31.3714 2.82237
644 1 61.2899 29.9459 1.33665
704 1 61.3804 32.8186 1.45697
2503 1 59.9121 31.3483 2.65427
2505 1 62.8423 31.4921 2.78841
646 1 64.1238 30.058 1.30045
706 1 64.3091 32.8138 1.35244
2507 1 65.6436 31.482 2.83406
707 1 65.7645 31.4714 0.0213978
648 1 67.1327 30.0686 1.45502
650 1 69.8256 30.0884 1.33018
708 1 67.1313 32.9521 1.30107
710 1 69.9561 32.9942 1.39452
2509 1 68.6121 31.5887 2.6405
652 1 72.7428 30.0749 1.44921
712 1 72.6258 32.9408 1.40719
2511 1 71.2951 31.4488 2.95274
2513 1 74.211 31.3411 2.80696
713 1 74.1704 31.4941 -0.0465794
711 1 71.3304 31.5121 -0.0573348
654 1 75.5949 30.0546 1.34559
714 1 75.6421 32.8847 1.35357
2515 1 77.0228 31.3804 2.83869
715 1 77.1104 31.5065 -0.0452053
656 1 78.3958 29.9872 1.43633
658 1 81.3838 29.9651 1.50852
716 1 78.4587 32.7499 1.44106
718 1 81.1979 32.8178 1.3428
2517 1 79.8658 31.4789 2.87608
717 1 79.8689 31.437 -0.0283898
660 1 84.2192 29.9963 1.4539
720 1 84.1542 32.877 1.39664
2519 1 82.8159 31.3832 2.84519
719 1 82.7991 31.4735 -0.0182264
722 1 1.3262 35.6885 1.38681
2523 1 2.72494 34.3118 2.74727
2583 1 2.74075 37.2004 2.80054
2521 1 -0.041959 34.2975 2.87903
724 1 4.2417 35.8037 1.5214
726 1 7.03247 35.6446 1.40637
2525 1 5.74944 34.312 2.87172
2585 1 5.68535 37.1448 2.93711
728 1 9.98391 35.8086 1.47029
2527 1 8.55116 34.4123 2.75944
2587 1 8.57289 37.2114 2.81986
727 1 8.60519 34.2138 -0.0140129
787 1 8.57654 37.0516 -0.0275423
730 1 12.7232 35.6498 1.38644
791 1 14.3164 37.0651 -0.00517535
2529 1 11.3893 34.2503 2.85912
2531 1 14.1254 34.2048 2.78478
2591 1 14.2126 37.1342 2.76677
2589 1 11.3927 37.1595 2.80931
731 1 14.2513 34.2353 -0.057718
729 1 11.382 34.2394 -0.0266819
732 1 15.6774 35.7353 1.41478
2533 1 17.1775 34.4167 2.79918
2593 1 17.0845 37.146 2.82333
734 1 18.4646 35.7397 1.45905
736 1 21.2809 35.6111 1.44709
2535 1 19.8296 34.3268 2.9037
2595 1 19.9536 37.153 2.93652
735 1 19.877 34.119 0.0886481
738 1 24.1755 35.7651 1.33102
2537 1 22.8619 34.254 2.82655
2539 1 25.5759 34.2306 2.73866
2597 1 22.8082 37.1335 2.85786
2599 1 25.6704 37.0467 2.78064
739 1 25.559 34.1915 0.0319798
737 1 22.7592 34.289 -0.01623
740 1 27.0677 35.6038 1.35157
2541 1 28.5451 34.2526 2.85544
2601 1 28.3658 37.0585 2.85307
801 1 28.6169 36.996 0.0321341
742 1 29.8613 35.5502 1.45963
743 1 31.2742 34.2645 -0.0417293
744 1 32.7806 35.6744 1.42902
2543 1 31.4087 34.2507 2.83446
2603 1 31.2516 37.0475 2.76187
803 1 31.4229 37.014 -0.156719
746 1 35.6175 35.6773 1.39089
2545 1 34.2587 34.1861 2.78959
2547 1 37.1779 34.2881 2.72139
2605 1 34.1411 37.0746 2.8356
2607 1 37.1114 37.1418 2.78509
805 1 34.1942 37.0446 -0.0265254
807 1 37.0406 37.0913 -0.0536857
747 1 37.072 34.2183 -0.138686
748 1 38.6124 35.6879 1.2937
2549 1 40.0076 34.3233 2.73195
2609 1 39.9434 37.1117 2.75687
809 1 39.9486 37.1155 -0.159345
750 1 41.3414 35.6569 1.33566
752 1 44.2202 35.741 1.31184
2551 1 42.8526 34.3644 2.78399
2611 1 42.9482 37.0912 2.79716
751 1 42.861 34.2776 -0.0242477
811 1 42.8042 37.1646 -0.0337886
754 1 47.0302 35.6547 1.46957