ITEM: TIMESTEP
320
ITEM: NUMBER OF ATOMS
54000
ITEM: BOX BOUNDS pp pp pp
0.0000000000000000e+00 8.5659000000000006e+01
0.0000000000000000e+00 8.5659000000000006e+01
0.0000000000000000e+00 8.5659000000000006e+01
ITEM: ATOMS id type x y z
2 1 1.60103 1.51739 1.44085
63 1 2.90785 2.86587 85.6336
1801 1 85.7139 85.6133 2.87753
1803 1 2.85683 0.0461325 2.91183
1861 1 0.029628 2.77249 2.87409
1863 1 2.78431 2.8851 2.97072
4 1 4.31563 1.56785 1.44918
6 1 7.25244 1.50312 1.54016
65 1 5.70032 2.84394 -0.00914058
1865 1 5.78628 2.87967 2.8781
7 1 8.53846 0.0137726 0.0685462
8 1 10.0278 1.53398 1.45545
1867 1 8.69109 2.91619 3.02373
9 1 11.3997 -0.0458435 0.0897105
10 1 12.7874 1.43118 1.47891
69 1 11.5089 2.89297 85.6226
71 1 14.2909 2.82951 85.6652
1869 1 11.4176 2.92316 2.99225
1871 1 14.1414 2.81895 2.87283
12 1 15.6626 1.23592 1.48926
14 1 18.5218 1.30012 1.46816
73 1 17.0029 2.89753 85.6262
1813 1 17.015 -0.148527 2.89347
1873 1 17.0447 2.73322 2.77104
15 1 20.063 85.6446 85.6371
16 1 21.398 1.39302 1.30851
75 1 19.8906 2.74854 -0.0213082
1815 1 20.0129 0.0490219 2.80301
1875 1 19.9799 2.89278 2.76611
18 1 24.207 1.40313 1.32893
77 1 22.8315 2.89722 -0.0130941
79 1 25.6328 2.82621 -0.00588803
1877 1 22.8561 2.83093 2.86933
1879 1 25.5894 2.95105 2.94724
20 1 27.0854 1.49326 1.51563
1821 1 28.4685 85.6345 2.80871
1881 1 28.6281 2.78688 2.81547
22 1 30.0261 1.42272 1.4135
24 1 32.889 1.39226 1.51502
1823 1 31.4011 85.7006 2.94048
1883 1 31.2541 2.8674 2.87487
25 1 34.1 85.6686 0.0933996
26 1 35.6375 1.36064 1.43432
1885 1 34.3163 2.86723 3.08146
1887 1 36.9729 2.83462 2.83159
28 1 38.4787 1.4471 1.4587
1889 1 39.9604 2.87525 2.98218
30 1 41.3641 1.48072 1.43851
32 1 44.2097 1.33933 1.32918
1831 1 42.7106 0.0856088 2.88614
1891 1 42.9003 2.761 2.87105
33 1 45.6171 85.6292 85.6539
34 1 47.0827 1.49034 1.48942
93 1 45.5902 2.8848 85.5765
1833 1 45.6397 0.0157184 2.95965
1893 1 45.609 2.84404 2.77456
36 1 49.8994 1.35633 1.52872
95 1 48.5081 2.9012 85.551
97 1 51.2549 2.90075 85.6682
1895 1 48.4943 2.83405 2.94346
1897 1 51.4428 2.8875 2.8514
38 1 52.7354 1.56249 1.33371
40 1 55.6313 1.3914 1.33777
99 1 54.1999 2.87261 85.6454
1899 1 54.2734 2.90334 2.79689
42 1 58.4694 1.41237 1.35921
101 1 57.1063 2.9687 0.124401
1901 1 57.0122 2.93905 2.86077
43 1 59.9785 85.615 85.6121
44 1 61.3478 1.40574 1.26459
45 1 62.8489 85.5961 85.6524
103 1 59.995 2.9609 0.091336
1843 1 60.0274 85.6754 2.84953
1845 1 62.7518 85.6261 2.81212
1903 1 59.9659 2.9103 2.72208
1905 1 62.7759 2.92284 2.83941
46 1 64.1605 1.44447 1.45938
107 1 65.7297 2.8551 0.0869705
1847 1 65.6504 0.0513914 2.93906
1907 1 65.6316 2.8843 2.90468
48 1 67.1102 1.42165 1.53054
50 1 70.0623 1.34675 1.30331
1909 1 68.6703 2.81196 2.90128
52 1 72.9429 1.52939 1.41016
113 1 74.3122 2.83494 85.55
1853 1 74.2254 0.0623976 2.84542
1911 1 71.3957 2.86329 2.85604
1913 1 74.3873 2.76865 2.86795
54 1 75.8062 1.45813 1.49621
115 1 77.217 2.6914 85.6214
1915 1 77.1894 2.87093 2.89398
56 1 78.4887 1.27287 1.48121
58 1 81.3598 1.38939 1.52596
1917 1 79.8886 2.75741 3.06909
61 1 0.129209 2.83584 0.0826233
59 1 82.8042 -0.0187994 0.0643887
60 1 84.2918 1.51147 1.44124
119 1 82.7685 2.6694 -0.0506667
1919 1 82.7922 2.8432 2.88203
62 1 1.30448 4.37458 1.39036
121 1 85.5512 5.73975 85.6747
122 1 1.41399 7.13521 1.36587
123 1 2.91166 5.65955 0.0292655
1923 1 2.84196 5.73484 2.91586
64 1 4.25735 4.29073 1.53701
66 1 7.07906 4.27164 1.43395
124 1 4.17081 7.19889 1.45096
125 1 5.7238 5.84735 0.141486
126 1 7.16617 7.11355 1.59426
1925 1 5.80208 5.75462 2.8017
68 1 9.86454 4.27861 1.46905
127 1 8.52339 5.63046 0.10723
128 1 10.0241 7.14509 1.56799
1927 1 8.56467 5.70626 3.04621
70 1 12.8081 4.31059 1.41544
129 1 11.4447 5.73538 85.6341
130 1 12.7499 7.11869 1.50673
131 1 14.275 5.70046 0.0978758
1929 1 11.401 5.61449 2.86215
1931 1 14.2789 5.70549 2.94806
72 1 15.6193 4.18378 1.4738
74 1 18.5025 4.19835 1.40798
132 1 15.6437 7.12385 1.3517
133 1 16.9509 5.58721 0.0176077
134 1 18.4934 7.11098 1.44534
1933 1 17.0575 5.63271 2.92449
76 1 21.3859 4.23476 1.3336
135 1 19.7681 5.64559 0.0341846
136 1 21.3771 7.19621 1.44841
1935 1 20.0201 5.62848 2.77255
78 1 24.2117 4.281 1.37215
138 1 24.1576 7.19631 1.45697
1937 1 22.8175 5.65706 2.89734
1939 1 25.5937 5.68486 2.83562
80 1 27.1296 4.31551 1.5245
140 1 27.1631 7.18922 1.37807
1941 1 28.3383 5.72604 2.91567
82 1 29.8936 4.36577 1.48659
84 1 32.8355 4.23571 1.53285
142 1 29.859 7.22647 1.50125
143 1 31.3168 5.76962 85.668
144 1 32.7769 7.15942 1.44955
1943 1 31.1717 5.76873 2.92512
86 1 35.6744 4.27723 1.48944
146 1 35.6597 7.12985 1.50034
1945 1 34.1747 5.73 2.96396
1947 1 37.0446 5.68883 2.83507
88 1 38.5635 4.17062 1.43811
148 1 38.6082 6.97445 1.45666
149 1 39.997 5.56387 0.0849373
1949 1 39.9217 5.69876 2.91355
90 1 41.4282 4.23672 1.59133
92 1 44.2019 4.28081 1.37853
150 1 41.4966 7.03682 1.56989
151 1 42.7907 5.66815 0.0397834
152 1 44.2926 7.10875 1.43198
1951 1 42.8481 5.6769 2.95159
94 1 47.0155 4.25118 1.40258
154 1 47.042 7.14601 1.37988
1953 1 45.6742 5.68607 2.83538
96 1 49.9356 4.27476 1.43406
155 1 48.4611 5.79986 85.5503
156 1 49.9129 7.08229 1.36113
157 1 51.4299 5.67249 85.5885
1955 1 48.4676 5.63007 2.87551
1957 1 51.4152 5.62882 2.89181
98 1 52.7249 4.26408 1.31299
100 1 55.624 4.30395 1.39834
158 1 52.6923 7.2485 1.39504
159 1 54.2058 5.81579 0.0797843
160 1 55.6547 7.25299 1.47169
1959 1 54.2607 5.8191 2.83268
102 1 58.5386 4.38566 1.41067
161 1 57.0457 5.80425 0.0613283
162 1 58.5244 7.13006 1.41327
1961 1 57.0689 5.78946 2.84551
104 1 61.4374 4.40661 1.48508
163 1 59.955 5.68028 85.6331
164 1 61.5179 7.28713 1.51615
165 1 62.7404 5.76748 -0.0511809
1963 1 59.9326 5.7554 2.97437
1965 1 62.8872 5.78548 2.96044
106 1 64.2961 4.29629 1.49455
166 1 64.2175 7.19257 1.38602
167 1 65.8307 5.6691 0.25487
1967 1 65.7303 5.8011 2.84413
108 1 67.1845 4.23407 1.55714
110 1 70.0621 4.40524 1.42307
168 1 67.1335 7.19817 1.48578
170 1 70.1258 7.28633 1.48408
1969 1 68.4697 5.74512 2.80087
112 1 72.8792 4.29785 1.53926
172 1 72.8089 7.21894 1.50785
173 1 74.1315 5.68081 0.069076
1971 1 71.4367 5.77553 2.90261
1973 1 74.3766 5.77089 2.90552
114 1 75.7746 4.17526 1.44002
174 1 75.6247 7.10946 1.38938
175 1 77.0599 5.72046 0.0832913
1975 1 77.1151 5.70966 2.88035
116 1 78.5448 4.14557 1.41957
118 1 81.3358 4.14132 1.39568
176 1 78.5468 7.16052 1.55563
177 1 79.9983 5.7224 0.0729186
178 1 81.4968 7.17802 1.46866
1977 1 80.0607 5.6791 2.87667
1921 1 85.5775 5.74666 2.83684
120 1 84.0925 4.18837 1.37128
179 1 82.7524 5.59509 85.633
180 1 84.2486 7.27788 1.32558
1979 1 82.9282 5.76893 2.96717
182 1 1.50243 9.98971 1.41302
1983 1 2.81901 8.53956 2.84395
184 1 4.32251 10.0048 1.35462
185 1 5.72339 8.5549 85.5905
186 1 7.23158 9.88128 1.46566
1985 1 5.70869 8.51067 2.85468
188 1 10.0194 9.98478 1.44632
1987 1 8.68949 8.62993 2.99145
190 1 12.8593 10.1019 1.42247
191 1 14.261 8.4666 0.0204312
1989 1 11.4126 8.58145 2.92701
1991 1 14.2456 8.60144 2.95481
192 1 15.5914 9.98954 1.41
193 1 17.0831 8.66554 85.599
194 1 18.4168 9.96748 1.32472
1993 1 17.0587 8.45968 2.93799
196 1 21.3869 10.0636 1.51942
1995 1 19.8808 8.60689 2.7371
197 1 22.7822 8.5976 0.0484781
198 1 24.1598 9.92471 1.47576
1997 1 22.7404 8.62722 3.0166
1999 1 25.6128 8.57974 2.99646
200 1 27.1304 10.0288 1.51297
2001 1 28.4538 8.53722 2.90253
202 1 29.9285 9.78151 1.35431
203 1 31.3295 8.49439 85.5479
204 1 32.8084 9.95529 1.36793
2003 1 31.4467 8.61572 2.78745
205 1 34.0936 8.57509 85.6317
206 1 35.7351 9.99088 1.43824
2005 1 34.2166 8.61395 2.79241
2007 1 37.1495 8.66651 2.84222
208 1 38.4903 10.045 1.39625
2009 1 39.9397 8.56675 2.86154
210 1 41.3714 9.9869 1.48331
212 1 44.1755 10.0257 1.52737
2011 1 42.7523 8.5183 2.95788
213 1 45.6077 8.62902 0.159956
214 1 47.1187 10.1602 1.50438
2013 1 45.6771 8.60241 2.89845
216 1 49.9111 10.0937 1.46391
2015 1 48.5113 8.61292 2.94282
2017 1 51.2387 8.56198 2.90111
218 1 52.8575 10.0885 1.42599
219 1 54.1899 8.62083 85.5799
220 1 55.6877 9.96186 1.35734
2019 1 54.1312 8.56043 2.85662
222 1 58.5747 10.0614 1.4883
2021 1 56.999 8.60514 2.80734
223 1 60.1436 8.54141 0.051511
224 1 61.4188 10.0259 1.40842
225 1 62.7707 8.49523 85.6724
2023 1 60.0532 8.56867 2.84195
2025 1 62.9603 8.59256 2.88747
226 1 64.3936 10.024 1.44446
227 1 65.5547 8.59956 0.113751
2027 1 65.6948 8.53483 2.81002
228 1 67.2403 9.94769 1.54639
229 1 68.5804 8.59241 0.0661264
230 1 69.9726 9.95198 1.50195
2029 1 68.4809 8.61304 2.87091
231 1 71.5094 8.61416 -0.00952918
232 1 72.9582 10.0105 1.38275
233 1 74.3731 8.53936 0.118454
2031 1 71.4919 8.71358 2.91441
2033 1 74.3235 8.55953 2.95692
234 1 75.7584 9.93812 1.51099
235 1 77.1419 8.48614 0.0485808
2035 1 77.1224 8.57799 2.81228
236 1 78.4531 9.96529 1.44481
238 1 81.447 9.93928 1.50326
2037 1 80.0012 8.50158 2.9184
1981 1 -0.034296 8.54348 2.80883
240 1 84.219 10.1287 1.35803
2039 1 82.881 8.61562 2.8627
241 1 0.0281971 11.375 85.6404
242 1 1.4542 12.8929 1.38058
303 1 2.90996 14.2247 0.0700492
2043 1 2.93147 11.4923 2.78376
2103 1 2.91917 14.2842 2.94869
244 1 4.29921 12.8991 1.49606
246 1 7.17141 12.8247 1.49826
2045 1 5.73449 11.3119 2.90123
2105 1 5.77464 14.2402 2.8782
248 1 9.96693 12.8698 1.46472
2047 1 8.61397 11.4345 2.95558
2107 1 8.60877 14.2747 2.86411
249 1 11.4725 11.4154 0.0650311
250 1 12.8224 12.8925 1.51338
251 1 14.1783 11.4877 0.0587905
311 1 14.2506 14.1973 85.5453
2049 1 11.2824 11.3618 2.9346
2051 1 14.2213 11.4212 2.90084
2109 1 11.5102 14.2727 2.87604
2111 1 14.3513 14.4093 2.89207
252 1 15.7971 12.8894 1.49432
253 1 17.1673 11.4479 85.5217
254 1 18.3655 12.8782 1.44626
313 1 17.1311 14.3617 85.7549
2053 1 17.0572 11.3746 2.79949
2113 1 17.0387 14.3254 2.93312
256 1 21.3767 12.9025 1.49871
315 1 20.0118 14.2057 0.128869
2055 1 19.808 11.3683 2.75953
2115 1 19.8522 14.2949 2.79634
257 1 22.7177 11.4683 85.6813
258 1 24.098 12.9091 1.51133
259 1 25.5532 11.4156 0.0990073
317 1 22.7515 14.2767 0.154071
319 1 25.608 14.3275 0.0168461
2057 1 22.7399 11.3871 2.73739
2059 1 25.7241 11.4317 2.88337
2117 1 22.7196 14.2252 2.91711
2119 1 25.5682 14.3094 2.83701
260 1 26.9194 12.7989 1.46238
261 1 28.6132 11.3016 85.6636
321 1 28.433 14.3283 0.0194055
2061 1 28.5181 11.3676 2.72431
2121 1 28.5011 14.1967 2.72249
262 1 29.9397 12.877 1.32299
263 1 31.4207 11.4089 85.5775
264 1 32.8333 12.7567 1.36677
323 1 31.3594 14.3356 85.6151
2063 1 31.3758 11.4581 2.77271
2123 1 31.2562 14.4735 2.78719
265 1 34.3795 11.2657 -0.00130347
266 1 35.6229 12.954 1.43272
267 1 37.1275 11.381 -0.00424321
2065 1 34.1668 11.5301 2.7821
2067 1 37.0963 11.4765 2.83313
2125 1 34.1065 14.3124 2.72718
2127 1 37.0321 14.2195 2.69599
268 1 38.5056 12.9406 1.28976
2069 1 39.9217 11.4262 2.8406
2129 1 39.912 14.2836 2.7824
270 1 41.4842 12.9276 1.49375
272 1 44.3451 12.8593 1.41944
331 1 42.8673 14.3218 85.5507
2071 1 42.8696 11.384 2.87461
2131 1 42.8881 14.3152 2.78932
274 1 47.1089 12.7735 1.37174
333 1 45.575 14.2686 85.5892
2073 1 45.6303 11.4324 2.88075
2133 1 45.8297 14.131 2.77272
276 1 49.9289 12.8414 1.43826
277 1 51.2698 11.4708 85.5926
335 1 48.7219 14.3673 85.6128
337 1 51.4536 14.3171 0.105534
2075 1 48.5868 11.5075 2.77027
2077 1 51.4593 11.3345 2.89196
2135 1 48.5945 14.2831 2.84787
2137 1 51.3313 14.1834 2.7733
278 1 52.6893 12.7167 1.40377
279 1 54.3116 11.4903 85.6099
280 1 55.6804 12.7847 1.44118
339 1 54.1397 14.2753 0.0244762
2079 1 54.3175 11.5646 2.87182
2139 1 54.2174 14.1488 2.93579
282 1 58.601 12.8492 1.46717
341 1 57.1217 14.1544 0.195696
2081 1 57.115 11.4864 2.81056
2141 1 57.1284 14.2453 2.8869
284 1 61.4386 12.8174 1.60533
2083 1 59.9769 11.4043 2.93312
2085 1 62.9028 11.4623 2.88164
2143 1 60.0253 14.3169 2.88163
2145 1 62.8348 14.3132 3.00464
286 1 64.3405 12.8655 1.45728
347 1 65.6875 14.2094 -0.006908
2087 1 65.7022 11.3605 2.91546
2147 1 65.7442 14.2848 2.85212
288 1 67.1496 12.8728 1.4652
289 1 68.5943 11.5919 0.0561457
290 1 70.1276 12.8467 1.57125
349 1 68.5024 14.2485 0.087435
2089 1 68.44 11.494 2.90185
2149 1 68.5057 14.2976 2.9021
291 1 71.3355 11.4301 0.0146814
292 1 72.8483 12.8196 1.43747
293 1 74.2773 11.4233 85.6092
351 1 71.406 14.3136 0.0725227
2091 1 71.487 11.3995 2.95906
2093 1 74.2642 11.4362 2.84555
2151 1 71.4469 14.3835 2.85076
2153 1 74.2343 14.3154 2.81818
294 1 75.7422 12.7592 1.4497
295 1 77.1122 11.3853 0.00420608
355 1 77.1485 14.3764 85.6208
2095 1 77.0758 11.4437 2.84501
2155 1 77.203 14.2267 2.97262
296 1 78.5542 12.7773 1.36039
298 1 81.2966 12.8709 1.41827
2097 1 80.0307 11.3683 2.91374
2157 1 79.9269 14.2698 2.89576
301 1 0.0300079 14.2798 0.0551402
2041 1 0.109368 11.4237 2.86482
2101 1 0.0927331 14.2747 2.99028
299 1 82.6647 11.5389 85.5963
300 1 84.2576 12.9165 1.5772
359 1 82.7854 14.2502 0.108256
2099 1 82.8497 11.466 2.89832
2159 1 82.8575 14.3095 3.06222
302 1 1.57816 15.6855 1.39774
362 1 1.45965 18.4445 1.47268
2161 1 0.0941465 17.1724 2.95627
2163 1 2.92785 17.0744 2.89545
304 1 4.26695 15.6363 1.44056
306 1 7.1901 15.7105 1.4834
364 1 4.36819 18.4691 1.44582
2165 1 5.73625 17.1698 2.88137
308 1 10.0546 15.7035 1.49628
368 1 9.93488 18.56 1.48992
2167 1 8.61971 17.0558 2.92413
310 1 12.8576 15.6419 1.39314
369 1 11.3549 17.0946 0.0961277
370 1 12.8167 18.6418 1.39188
371 1 14.3114 17.0421 0.100055
2169 1 11.3814 17.1298 2.92035
2171 1 14.2146 17.2092 2.87078
312 1 15.7249 15.6968 1.52605
314 1 18.5635 15.6241 1.46137
372 1 15.8769 18.5743 1.44146
374 1 18.5819 18.6644 1.64874
2173 1 17.2628 17.1469 2.87071
316 1 21.439 15.7497 1.46929
375 1 19.9731 17.1056 0.0629612
2175 1 19.996 17.2336 2.87945
318 1 24.2105 15.7675 1.30316
377 1 22.8617 17.2278 0.0177682
378 1 24.2919 18.6393 1.42354
379 1 25.6464 17.2614 85.5901
2177 1 22.8459 17.1988 2.81812
2179 1 25.6857 17.0544 2.72527
320 1 27.0889 15.7273 1.33564
380 1 27.0711 18.6046 1.30166
381 1 28.5473 17.1908 85.6326
2181 1 28.5897 17.1402 2.76572
322 1 30.0318 15.801 1.31935
324 1 32.6725 15.74 1.43365
382 1 30.0012 18.5402 1.37725
383 1 31.4619 17.1645 85.4308
2183 1 31.4318 17.1786 2.74561
326 1 35.5191 15.7501 1.30968
385 1 34.152 17.3353 85.6419
386 1 35.7242 18.6205 1.46815
387 1 37.0574 17.1098 0.0799111
2185 1 34.2237 17.1282 2.82905
2187 1 36.9727 17.0285 2.8696
328 1 38.5535 15.6814 1.40391
2189 1 39.8541 17.0557 2.93332
330 1 41.497 15.691 1.39922
332 1 44.3981 15.6958 1.49748
390 1 41.3333 18.3993 1.41092
391 1 42.9424 17.1067 0.103047
392 1 44.3434 18.5495 1.40968
2191 1 42.7641 17.1716 2.78052
334 1 47.1468 15.6325 1.40596
393 1 45.7773 17.1178 0.0192111
394 1 47.1236 18.5259 1.34759
2193 1 45.7083 17.0626 2.83959
336 1 50.046 15.6925 1.38238
396 1 49.9654 18.6159 1.40249
2195 1 48.5663 17.0784 2.71896
2197 1 51.4225 17.2446 2.95438
338 1 52.8312 15.7061 1.64496
340 1 55.6558 15.6502 1.46107
398 1 52.7387 18.6481 1.48762
399 1 54.1354 17.1444 0.0692745
400 1 55.6823 18.5669 1.43802
2199 1 54.2482 17.0749 2.87835
342 1 58.5825 15.65 1.515
401 1 57.0426 17.0739 0.0286062
402 1 58.5328 18.4202 1.4249
2201 1 57.1116 17.0649 2.92908
344 1 61.4007 15.6893 1.44269
403 1 59.9729 17.1929 0.0170088
404 1 61.4594 18.6131 1.43412
2203 1 60.0844 17.1649 2.91661
2205 1 62.8712 17.1438 2.81223
346 1 64.2378 15.6557 1.43081
406 1 64.2908 18.5623 1.54881
2207 1 65.803 17.1178 2.87988
348 1 67.2013 15.7832 1.412
350 1 69.962 15.7198 1.48528
408 1 67.055 18.5721 1.40643
2209 1 68.5806 17.1716 2.86841
352 1 72.7457 15.6858 1.4679
411 1 71.3677 17.1824 85.6656
412 1 72.8255 18.5517 1.4049
2211 1 71.503 17.1343 2.93284
2213 1 74.1929 17.0992 2.85497
354 1 75.8551 15.6031 1.38586
414 1 75.776 18.4427 1.47367
2215 1 77.1397 17.1067 2.91488
356 1 78.5615 15.7161 1.50223
358 1 81.3222 15.7666 1.42843
416 1 78.553 18.5965 1.33568
418 1 81.3705 18.5972 1.48812
2217 1 79.8697 17.2391 2.88363
360 1 84.2467 15.7229 1.49673
419 1 82.8811 17.1587 85.6352
420 1 84.2884 18.5703 1.40005
2219 1 82.8459 17.1591 2.84426
421 1 0.152186 20.0523 85.6322
422 1 1.46099 21.4162 1.61623
2223 1 2.90303 20.0335 2.90895
366 1 7.11598 18.5774 1.51336
424 1 4.2836 21.4151 1.51325
426 1 7.12205 21.3643 1.47245
2225 1 5.6266 20.0416 2.98114
428 1 9.97875 21.4117 1.38928
2227 1 8.60026 19.9294 2.959
429 1 11.3552 19.9672 0.0254558
430 1 12.9409 21.3589 1.56083
2229 1 11.3192 19.9338 2.84762
2231 1 14.3485 19.8871 2.803
432 1 15.7259 21.3591 1.39943
434 1 18.5618 21.4169 1.46451
2233 1 17.1485 20.035 2.97827
376 1 21.3711 18.6733 1.46145
435 1 20.0161 20.0394 0.106588
436 1 21.5019 21.4278 1.54804
2235 1 20.0428 20.1177 2.91334
437 1 22.6865 20.0836 85.6237
438 1 24.1554 21.5866 1.52956
439 1 25.5679 20.0916 85.568
2237 1 22.8795 20.0538 2.90188
2239 1 25.7131 20.0528 2.71626
440 1 27.163 21.4061 1.35136
441 1 28.75 20.0015 85.6565
2241 1 28.5597 20.0671 2.74863
384 1 32.9184 18.66 1.37248
442 1 30.0608 21.4868 1.46772
443 1 31.4267 19.9697 -0.0317331
444 1 32.8953 21.4209 1.45691
2243 1 31.4427 20.0456 2.70937
446 1 35.7079 21.4759 1.46121
447 1 37.0484 20.0277 0.0971949
2245 1 34.2533 20.118 2.9863
2247 1 37.0434 19.8739 2.94677
388 1 38.4898 18.394 1.47139
448 1 38.6285 21.4555 1.47814
2249 1 39.9432 19.9302 2.94476
450 1 41.352 21.4051 1.3898
451 1 42.7946 19.9969 0.0553695
452 1 44.2642 21.3129 1.49487
2251 1 42.9007 20.0143 2.89563
453 1 45.7025 20.0319 85.662
454 1 47.1434 21.3955 1.45555
2253 1 45.8789 20.0304 2.9198
455 1 48.5866 20.1806 0.0774669
456 1 50.0437 21.4962 1.46505
457 1 51.3566 19.9945 85.6606
2255 1 48.5292 20.0222 2.8699
2257 1 51.3567 20.0818 2.87613
458 1 52.8552 21.4887 1.37097
459 1 54.3221 19.9779 0.00231616
460 1 55.7002 21.5072 1.37396
2259 1 54.2078 19.9698 2.86636
461 1 57.132 19.9517 85.6829
462 1 58.5261 21.421 1.42526
2261 1 57.2164 20.0486 2.74023
463 1 60.0346 20.0554 0.0578585
464 1 61.3968 21.289 1.50888
2263 1 59.9696 20.0365 2.8175
2265 1 62.899 19.9615 2.892
466 1 64.3318 21.3154 1.47
467 1 65.7006 19.8764 85.6712
2267 1 65.8614 20.039 2.93724
410 1 69.9853 18.5043 1.4187
468 1 67.0903 21.475 1.51268
470 1 70.018 21.4117 1.56713
2269 1 68.6121 20.019 2.77421
472 1 72.8193 21.3906 1.31315
473 1 74.2237 20.0875 85.6415
2271 1 71.429 19.997 3.01246
2273 1 74.304 19.9292 2.66485
474 1 75.8229 21.2626 1.45568
2275 1 77.2054 19.888 2.78512
476 1 78.6377 21.4191 1.43579
477 1 79.9731 20.0497 85.5554
478 1 81.3878 21.3475 1.49601
2277 1 79.9291 19.9383 2.88357
2221 1 0.114413 19.9906 2.87615
480 1 84.2191 21.3705 1.55042
2279 1 82.9092 19.9618 2.99277
482 1 1.41319 24.2129 1.36198
2281 1 85.6108 22.868 2.94467
2283 1 2.6928 22.8766 2.93198
2341 1 0.0327361 25.7603 2.74145
2343 1 2.84446 25.7465 2.80675
484 1 4.30078 24.2446 1.41484
486 1 7.10643 24.1673 1.44673
545 1 5.72523 25.6091 85.6339
2285 1 5.61851 22.7708 2.86041
2345 1 5.62408 25.5769 2.93317
487 1 8.52987 22.8068 85.6026
488 1 9.9741 24.1181 1.45825
547 1 8.48627 25.5234 0.024363
2287 1 8.54477 22.6786 2.74353
2347 1 8.53163 25.6877 2.88926
490 1 12.8475 24.195 1.39087
491 1 14.2697 22.8545 85.6972
549 1 11.2781 25.6533 85.5363
551 1 14.1728 25.68 85.6455
2289 1 11.3478 22.6477 2.79822
2291 1 14.435 22.8688 2.89235
2349 1 11.4612 25.6324 2.73713
2351 1 14.4573 25.5954 2.84704
492 1 15.617 24.2822 1.38979
494 1 18.5302 24.2824 1.33358
2293 1 17.1759 22.8115 2.94892
2353 1 17.1758 25.6302 2.89177
495 1 19.961 22.8501 0.0867391
496 1 21.4267 24.3205 1.46549
555 1 19.9257 25.6395 85.5285
2295 1 20.0115 22.9022 2.81281
2355 1 20.0798 25.6944 2.99019
497 1 22.9109 22.8421 0.0459839
498 1 24.3401 24.3264 1.40053
499 1 25.7257 22.8702 0.0176822
2297 1 22.8366 22.9976 2.99294
2299 1 25.8597 22.8931 2.90484
2357 1 22.8834 25.6772 2.87849
2359 1 25.8291 25.6755 2.7246
500 1 27.2128 24.3226 1.2662
501 1 28.6104 22.8786 85.5527
2301 1 28.4414 22.9363 2.79511
2361 1 28.597 25.7249 2.82138
502 1 30.1248 24.2817 1.513
504 1 32.9124 24.302 1.45026
2303 1 31.4141 22.983 2.85504
2363 1 31.4285 25.8088 2.94588
506 1 35.7164 24.3046 1.46892
507 1 37.1406 22.8332 85.635
567 1 37.1604 25.721 0.00938729
2305 1 34.3526 22.9038 2.88527
2307 1 37.216 22.8392 2.80895
2365 1 34.2783 25.8533 2.86875
2367 1 37.1019 25.8242 2.80645
508 1 38.6483 24.3014 1.45632
569 1 40.0358 25.6412 85.701
2309 1 39.9796 22.9374 2.93192
2369 1 40.0572 25.7021 2.73202
510 1 41.4844 24.2909 1.43352
511 1 42.9016 22.7987 85.6687
512 1 44.3714 24.11 1.41267
571 1 42.888 25.717 85.5722
2311 1 42.7647 22.8507 2.88337
2371 1 42.792 25.5498 2.73438
513 1 45.6933 22.794 85.6679
514 1 47.1065 24.2253 1.43909
573 1 45.6708 25.7282 0.0321841
2313 1 45.5843 22.7984 2.90997
2373 1 45.7588 25.7369 2.95993
515 1 48.53 22.8225 0.046524
516 1 49.9892 24.0821 1.47899
575 1 48.4669 25.5679 85.6674
2315 1 48.6009 22.8596 2.88495
2317 1 51.472 22.8892 2.96583
2375 1 48.642 25.6658 2.89201
2377 1 51.4135 25.5503 2.81293
518 1 52.9089 24.2258 1.39645
520 1 55.6943 24.2939 1.43868
2319 1 54.3336 22.8484 2.95825
2379 1 54.3687 25.7767 2.82005
521 1 57.1815 22.8456 -0.0833799
522 1 58.593 24.2453 1.38179
2321 1 57.1891 22.7873 2.84572
2381 1 57.1583 25.651 2.81489
523 1 59.9992 22.7503 0.125817
524 1 61.4169 24.2512 1.53114
525 1 62.8561 22.8197 85.6793
2323 1 59.9708 22.7418 2.79153
2325 1 62.7698 22.7514 2.9122
2383 1 60.0024 25.7313 2.84096
2385 1 62.8351 25.6488 2.83789
526 1 64.1183 24.2791 1.38424
2327 1 65.695 22.9321 2.8775
2387 1 65.6862 25.6902 2.90096
528 1 67.2277 24.2356 1.34438
529 1 68.4738 22.7805 85.5553
530 1 70.044 24.1533 1.42487
2329 1 68.5306 22.8563 2.95366
2389 1 68.6076 25.6001 2.84176
532 1 72.7552 24.3679 1.45788
593 1 74.2349 25.5791 85.6328
2331 1 71.4238 22.8637 2.86305
2333 1 74.2232 22.6739 2.82616
2391 1 71.3718 25.6446 2.87957
2393 1 74.2621 25.6446 2.80363
534 1 75.7162 24.1169 1.32087
2335 1 77.1235 22.8323 2.82174
2395 1 77.1406 25.7178 2.76496
536 1 78.541 24.3313 1.43549
537 1 80.0346 22.8399 85.6717
538 1 81.3304 24.2842 1.43702
2337 1 79.8866 22.904 2.85323
2397 1 79.8895 25.8194 2.72134
540 1 84.2742 24.3345 1.4167
2339 1 82.8033 22.8758 2.90883
2399 1 82.732 25.7849 2.86786
542 1 1.45942 27.1755 1.28591
2403 1 2.83731 28.5622 2.87029
544 1 4.284 27.1203 1.3492
546 1 7.18716 27.0385 1.50415
2405 1 5.68517 28.6064 2.88277
548 1 10.0172 27.1347 1.44011
2407 1 8.57364 28.5604 2.87214
550 1 12.837 27.0069 1.46942
2409 1 11.404 28.5457 2.85593
2411 1 14.3373 28.5167 2.75517
552 1 15.7041 27.1202 1.36774
554 1 18.545 26.9713 1.41207
2413 1 17.1253 28.3578 2.90306
556 1 21.3479 27.0813 1.41829
615 1 19.8831 28.4827 85.5921
2415 1 19.9605 28.4335 2.75777
558 1 24.2088 27.0693 1.3614
619 1 25.6562 28.5448 0.0407643
2417 1 22.8109 28.5893 2.86627
2419 1 25.7155 28.4866 2.87164
560 1 27.1771 27.111 1.31932
2421 1 28.5157 28.5879 2.80169
562 1 29.8916 27.1086 1.37226
564 1 32.8565 27.1286 1.45984
623 1 31.4928 28.5921 -0.0144442
2423 1 31.4913 28.5426 2.76195
566 1 35.7518 27.2317 1.39141
625 1 34.2869 28.5003 0.0110994
627 1 37.1328 28.6285 85.5317
2425 1 34.3178 28.6047 2.90138
2427 1 37.2707 28.5023 2.73595
568 1 38.5736 27.1529 1.24175
2429 1 39.9559 28.4913 2.68021
570 1 41.3615 27.1263 1.36743
572 1 44.2308 27.0472 1.38507
631 1 42.9246 28.5567 85.4518
2431 1 42.803 28.5347 2.62904
574 1 47.1416 27.0651 1.31616
633 1 45.742 28.6342 85.5811
2433 1 45.7682 28.5451 2.76408
576 1 49.9959 27.0114 1.40107
635 1 48.5632 28.39 85.5881
637 1 51.3819 28.4482 0.0437836
2435 1 48.6605 28.3881 2.82489
2437 1 51.411 28.5127 2.9003
578 1 52.8219 26.9644 1.52902
580 1 55.7426 27.1431 1.40554
2439 1 54.1234 28.5426 2.88825
582 1 58.6143 27.0994 1.34293
641 1 57.0903 28.4455 85.5502
2441 1 57.1823 28.5474 2.90591
584 1 61.4197 27.0659 1.40334
2443 1 59.9113 28.5747 2.83404
2445 1 62.7921 28.4923 2.75835
586 1 64.3085 27.0674 1.4342
2447 1 65.7354 28.4932 2.9136
588 1 67.2701 27.1646 1.4958
590 1 70.0668 27.0052 1.42055
2449 1 68.697 28.4783 2.86829
592 1 72.8152 27.076 1.45141
653 1 74.1882 28.5178 85.5451
2451 1 71.3537 28.5034 2.8656
2453 1 74.3079 28.4099 2.85628
594 1 75.6375 27.0626 1.29209
655 1 77.0925 28.4627 85.5969
2455 1 77.0819 28.55 2.93732
596 1 78.463 27.2299 1.32566
598 1 81.3081 27.1312 1.30278
657 1 79.8816 28.4512 -0.0634473
2457 1 79.8494 28.5629 2.92672
2401 1 0.119045 28.6239 2.85681
600 1 84.2089 27.2962 1.45343
659 1 82.7145 28.6379 -0.0452801
2459 1 82.6765 28.7005 2.84626
602 1 1.38937 30.106 1.36827
662 1 1.15426 32.9698 1.34188
2461 1 85.6176 31.5581 2.78538
2463 1 2.88857 31.5666 2.72015
604 1 4.29269 29.9971 1.34865
606 1 7.11746 30.0355 1.48839
664 1 4.25244 32.9274 1.2849
666 1 7.07362 32.7422 1.37841
2465 1 5.61529 31.4867 2.82949
608 1 10.0988 29.9389 1.3774
667 1 8.49607 31.369 -0.0177476
668 1 9.85368 32.836 1.40793
2467 1 8.58376 31.3606 2.79423
610 1 12.8764 29.9506 1.37243
670 1 12.8464 32.7013 1.35757
2469 1 11.4016 31.4558 2.89471
2471 1 14.2172 31.3326 2.87904
612 1 15.668 29.9724 1.29103
614 1 18.4692 29.8879 1.39001
672 1 15.5901 32.8032 1.4051
674 1 18.5925 32.7115 1.36123
2473 1 17.1108 31.3002 2.78298
616 1 21.4844 29.8788 1.49969
676 1 21.5172 32.8962 1.36261
2475 1 19.946 31.3731 2.77298
618 1 24.326 29.8769 1.42947
678 1 24.2377 32.8006 1.44054
679 1 25.6051 31.359 0.00797271
2477 1 22.8501 31.3455 2.75741
2479 1 25.6136 31.3615 2.78003
620 1 27.1259 29.9551 1.43835
680 1 27.0922 32.8165 1.33656
2481 1 28.5163 31.422 2.85036
622 1 30.0617 29.962 1.42114
624 1 32.9043 30.0722 1.41147
682 1 30.0149 32.7878 1.51867
684 1 32.8781 32.8286 1.55509
2483 1 31.4066 31.3754 2.82545
626 1 35.6779 29.9829 1.44522
685 1 34.3579 31.4655 -0.0822055
686 1 35.7849 32.8302 1.37652
2485 1 34.3867 31.4122 2.81006
2487 1 37.2663 31.4641 2.91363
628 1 38.5226 30.0309 1.33969
688 1 38.6222 32.7968 1.48801
2489 1 39.9586 31.4416 2.89022
630 1 41.4172 30.0227 1.38064
632 1 44.1889 29.9841 1.37809
690 1 41.4143 32.8623 1.34245
691 1 42.8776 31.3716 0.0523551
692 1 44.3251 32.8552 1.40754
2491 1 42.8322 31.3386 2.92712
634 1 47.2866 29.8887 1.54853
693 1 45.6956 31.4082 85.6518
694 1 47.0877 32.8043 1.40492
2493 1 45.7128 31.2871 2.75134
636 1 50.0584 29.9388 1.43371
695 1 48.6304 31.4508 85.6168
696 1 50.0523 32.9219 1.51723
697 1 51.3202 31.432 0.0883652
2495 1 48.5149 31.5115 2.87628
2497 1 51.4303 31.3931 2.94044
638 1 52.7491 29.9091 1.4102
640 1 55.7534 30.0327 1.3668
698 1 52.7475 32.8231 1.44523
700 1 55.6274 32.9218 1.46205
2499 1 54.2897 31.3962 2.88684
642 1 58.509 29.8928 1.3443
702 1 58.5727 32.7714 1.50043
2501 1 57.1274 31.3948 2.92334
644 1 61.2922 29.975 1.51996
704 1 61.453 32.834 1.43263
2503 1 60.0001 31.404 2.83418
2505 1 62.8138 31.4128 2.82868
646 1 64.3379 30.001 1.58753
706 1 64.3216 32.8182 1.4222
2507 1 65.7154 31.5357 2.86965
648 1 67.2288 29.9374 1.45248
650 1 69.9943 29.9863 1.47837
708 1 67.2021 32.896 1.436
710 1 69.9705 32.7796 1.4347
2509 1 68.5926 31.3256 2.97866
652 1 72.9172 29.8387 1.3968
712 1 72.9013 32.7612 1.47208
2511 1 71.5092 31.3673 2.75924
2513 1 74.358 31.3042 2.8936
654 1 75.6679 29.8167 1.33454
714 1 75.7704 32.6555 1.48048
715 1 77.1037 31.4093 85.5694
2515 1 77.1646 31.3198 2.82217
656 1 78.4462 29.8767 1.39337
658 1 81.2684 29.9422 1.47152
716 1 78.4257 32.7968 1.40178
718 1 81.3671 32.9104 1.45837
2517 1 79.9506 31.3983 2.87984
660 1 84.2737 30.1208 1.33499
720 1 84.2359 32.9663 1.42353
2519 1 82.7537 31.4634 2.78121
722 1 1.35156 35.6968 1.37012
781 1 0.0729391 37.2316 85.4983
2521 1 85.4954 34.2977 2.90687
2523 1 2.65979 34.227 2.72628
2583 1 2.9256 37.0634 2.78059
724 1 4.29568 35.7147 1.48118
726 1 7.14263 35.7409 1.47859
2525 1 5.73479 34.2596 2.90599
2585 1 5.68742 37.112 2.88677
727 1 8.64418 34.2287 85.5319
728 1 10.0797 35.7987 1.29486
2527 1 8.6865 34.322 2.80433
2587 1 8.61012 37.2066 2.72822
730 1 12.8088 35.7814 1.40356
731 1 14.272 34.3531 0.0237662
791 1 14.3522 37.0829 0.0681634
2529 1 11.4431 34.2842 2.72841
2531 1 14.3051 34.3276 2.88974
2589 1 11.4985 37.2634 2.86372
2591 1 14.2872 37.095 2.8161
732 1 15.8102 35.7296 1.39093
734 1 18.5159 35.6774 1.32238
793 1 17.2539 37.2184 85.5337
2533 1 17.1092 34.1143 2.75707
2593 1 17.1003 37.1711 2.83889
735 1 19.9542 34.2473 85.5605
736 1 21.4379 35.682 1.44043
2535 1 19.9992 34.2036 2.8421
2595 1 20.0629 37.194 2.84199
738 1 24.2119 35.6365 1.30846
2537 1 22.8409 34.2035 2.77083
2539 1 25.6698 34.2609 2.77644
2597 1 22.8471 37.0732 2.82501
2599 1 25.7293 37.1731 2.89188
740 1 27.1716 35.6344 1.43064
741 1 28.5056 34.3076 85.6426
801 1 28.5219 37.1487 85.6599
2541 1 28.5645 34.2532 2.87007
2601 1 28.5752 37.1061 2.89533
742 1 30.0255 35.6774 1.484
743 1 31.449 34.3123 0.107559
744 1 32.9311 35.6552 1.52317
2543 1 31.4033 34.1802 2.84261
2603 1 31.3081 37.2132 2.89892
746 1 35.7108 35.6115 1.47277
2545 1 34.3373 34.3317 2.82904
2547 1 37.2263 34.2196 2.89948
2605 1 34.2454 37.1204 2.80163
2607 1 37.023 37.1665 2.93243
807 1 37.1088 37.0552 0.0973751
748 1 38.5386 35.7566 1.45833
749 1 39.9644 34.2421 -0.0323429
809 1 40.012 37.1387 0.145345
2549 1 39.9209 34.3752 2.84119
2609 1 39.9476 37.2592 2.83649
750 1 41.4168 35.7702 1.48569
751 1 42.7926 34.1739 85.6797
752 1 44.2071 35.6977 1.44049
811 1 42.9072 37.0437 85.6244
2551 1 42.7677 34.2104 2.86455
2611 1 42.8553 37.1315 2.90018
753 1 45.6602 34.3294 0.0236402
754 1 47.0356 35.6915 1.34636
813 1 45.662 37.0615 0.0128907
2553 1 45.6328 34.3222 2.88534
2613 1 45.6379 37.0879 2.83967
755 1 48.6335 34.2096 85.6776
756 1 49.9207 35.5296 1.34812
815 1 48.617 37.0793 85.6397
2555 1 48.3984 34.3487 2.86594
2557 1 51.4075 34.3526 2.93204
2615 1 48.5339 37.1157 2.78936
2617 1 51.4531 37.0963 2.78684
758 1 52.8387 35.6755 1.37367
759 1 54.2045 34.2244 -0.0904464
760 1 55.6673 35.6828 1.38999
819 1 54.3542 37.0678 0.006369
2559 1 54.1474 34.2322 2.93504
2619 1 54.1017 37.0789 2.88066
762 1 58.5199 35.6048 1.58076
2561 1 57.0413 34.2832 2.9669
2621 1 57.0839 37.1069 2.84885
763 1 59.9916 34.2586 0.0373985
764 1 61.2905 35.7457 1.29311
2563 1 60.0854 34.3121 2.93027
2565 1 62.8085 34.3641 2.81158
2623 1 59.9182 37.0395 2.88338
2625 1 62.7979 37.0974 2.75245
766 1 64.2853 35.6519 1.45104
2567 1 65.7496 34.1747 2.98185
2627 1 65.6537 37.1018 2.81528
768 1 67.1961 35.6428 1.42609
770 1 70.0642 35.6552 1.38641
829 1 68.5982 37.1059 0.0233776
2569 1 68.5995 34.2296 2.8906
2629 1 68.5526 37.1351 2.89052
772 1 72.758 35.6885 1.52517
833 1 74.2932 37.0325 85.6132