LAMMPS data file via write_data, version 30 Mar 2026, timestep = 52, units = metal

1437 atoms
1 atom types

-29.33334877198415 29.833246762415698 xlo xhi
-29.93407992322052 28.991463232725383 ylo yhi
0 8.65848718029021 zlo zhi

Masses

1 26.982

Atoms # atomic

445 1 -10.164592472108142 -25.214996470744847 1.1209043812479647 0 0 0
453 1 -10.164592472108142 -25.214996470744847 4.0070667746780355 0 0 0
456 1 -10.164592472108142 -25.214996470744847 6.893229168108107 0 0 0
563 1 -12.664082424265882 -25.214996470744847 8.299325190322195 0 0 -1
564 1 -12.664082424265882 -25.214996470744847 2.5270004034620577 0 0 0
565 1 -15.163572376423623 -25.214996470744847 1.0497110305908341 0 0 0
567 1 -15.163572376423623 -25.214996470744847 3.935873424020905 0 0 0
577 1 -12.664082424265882 -25.214996470744847 5.413162796892126 0 0 0
578 1 -15.16357237642362 -25.214996470744847 6.822035817450975 0 0 0
328 1 -4.332449250406749 -27.571538196982683 8.43881492175403 0 0 -1
329 1 -6.831939202564489 -27.571538196982683 1.184216883848741 0 0 0
333 1 -5.165612567792661 -25.214996470744847 1.202292248960255 0 0 0
335 1 -4.332449250406749 -27.571538196982683 2.666490134893891 0 0 0
336 1 -4.332449250406751 -27.571538196982683 5.552652528323963 0 0 0
337 1 -6.831939202564489 -27.571538196982683 4.070379277278811 0 0 0
338 1 -5.165612567792663 -25.214996470744847 4.088454642390328 0 0 0
339 1 -6.831939202564489 -27.571538196982683 6.956541670708883 0 0 0
350 1 -5.165612567792663 -25.214996470744847 6.974617035820399 0 0 0
442 1 -7.665102519950401 -25.214996470744847 8.375888686909319 0 0 -1
443 1 -9.331429154722228 -27.571538196982683 8.362059564958566 0 0 -1
444 1 -9.331429154722228 -27.571538196982683 2.589734778098428 0 0 0
451 1 -7.665102519950401 -25.214996470744847 2.60356390004918 0 0 0
452 1 -7.665102519950405 -25.214996470744847 5.489726293479253 0 0 0
455 1 -9.331429154722228 -27.571538196982683 5.475897171528497 0 0 0
125 1 1.4996939712946444 -29.92807992322052 1.316741435875407 0 0 0
126 1 3.1660206060664686 -27.571538196982683 1.3453966347778876 0 0 0
127 1 1.4996939712946427 -29.92807992322052 4.2029038293054795 0 0 0
135 1 3.1660206060664704 -27.571538196982683 4.231559028207957 0 0 0
137 1 1.4996939712946427 -29.92807992322052 7.089066222735551 0 0 0
138 1 3.1660206060664686 -27.571538196982683 7.117721421638029 0 0 0
220 1 -0.9997959808630953 -29.92807992322052 8.49439889863498 0 0 -1
221 1 2.3328572886805565 -25.214996470744847 8.550281048838407 0 0 -1
222 1 0.6665306539087307 -27.571538196982683 8.520019056457894 0 0 -1
223 1 0.6665306539087307 -27.571538196982683 2.7476942695977558 0 0 0
224 1 -1.8329592982490075 -27.571538196982683 1.2637374682693485 0 0 0
225 1 -0.1666326634771832 -25.214996470744847 1.290250021030958 0 0 0
226 1 -0.9997959808630953 -29.92807992322052 2.72207411177484 0 0 0
227 1 -0.9997959808630971 -29.92807992322052 5.608236505204913 0 0 0
228 1 -1.8329592982490093 -27.571538196982683 4.149899861699422 0 0 0
234 1 2.3328572886805565 -25.214996470744847 2.777956261978268 0 0 0
235 1 2.3328572886805565 -25.214996470744847 5.6641186554083385 0 0 0
236 1 -0.16663266347718142 -25.214996470744847 4.176412414461027 0 0 0
238 1 0.6665306539087307 -27.571538196982683 5.633856663027826 0 0 0
239 1 -1.8329592982490093 -27.571538196982683 7.036062255129493 0 0 0
240 1 -0.1666326634771832 -25.214996470744847 7.0625748078910995 0 0 0
331 1 -2.666122615634923 -25.214996470744847 8.461190780227504 0 0 -1
332 1 -2.666122615634923 -25.214996470744847 2.688865993367366 0 0 0
349 1 -2.666122615634923 -25.214996470744847 5.575028386797437 0 0 0
49 1 8.165000510381953 -27.571538196982683 1.4242299949766146 0 0 0
50 1 9.83132714515378 -25.214996470744847 1.4618376048578416 0 0 0
51 1 8.165000510381953 -27.571538196982683 4.310392388406687 0 0 0
59 1 9.831327145153779 -25.214996470744847 4.347999998287912 0 0 0
62 1 8.165000510381953 -27.571538196982683 7.196554781836757 0 0 0
63 1 9.83132714515378 -25.214996470744847 7.234162391717984 0 0 0
124 1 5.66551055822421 -27.571538196982683 8.600863521522012 0 0 -1
129 1 7.331837192996038 -25.214996470744847 8.636761380776896 0 0 -1
130 1 7.331837192996038 -25.214996470744847 2.864436593916756 0 0 0
131 1 4.832347240838296 -25.214996470744847 1.3788295907473749 0 0 0
133 1 5.66551055822421 -27.571538196982683 2.8285387346618736 0 0 0
134 1 5.66551055822421 -27.571538196982683 5.714701128091944 0 0 0
136 1 4.832347240838296 -25.214996470744847 4.264991984177446 0 0 0
148 1 7.331837192996038 -25.214996470744847 5.7505989873468275 0 0 0
149 1 4.832347240838296 -25.214996470744847 7.151154377607517 0 0 0
2 1 14.830307049469255 -25.214996470744847 1.5351213486333635 0 0 0
4 1 14.830307049469255 -25.214996470744847 4.4212837420634346 0 0 0
14 1 14.830307049469253 -25.214996470744847 7.307446135493505 0 0 0
46 1 12.330817097311517 -25.214996470744847 0.05676144154946583 0 0 0
47 1 10.66449046253969 -27.571538196982683 0.018174335282852838 0 0 0
48 1 10.66449046253969 -27.571538196982683 2.9043367287129236 0 0 0
57 1 12.330817097311517 -25.214996470744847 2.9429238349795375 0 0 0
58 1 12.330817097311517 -25.214996470744847 5.829086228409607 0 0 0
61 1 10.66449046253969 -27.571538196982683 5.790499122142995 0 0 0
688 1 -18.49622564596728 -22.85845474450701 0.9871155478381066 0 0 0
689 1 -16.82989901119545 -20.501913018269175 0.9840338657844738 0 0 0
690 1 -18.49622564596728 -22.85845474450701 3.8732779412681775 0 0 0
698 1 -16.82989901119545 -20.501913018269175 3.870196259214545 0 0 0
701 1 -18.496225645967275 -22.85845474450701 6.7594403346982475 0 0 0
702 1 -16.82989901119545 -20.501913018269175 6.756358652644616 0 0 0
811 1 -17.66306232858136 -18.14537129203134 8.161471757604362 0 0 -1
812 1 -19.32938896335319 -20.501913018269175 8.168475292042862 0 0 -1
813 1 -19.32938896335319 -20.501913018269175 2.3961505051827245 0 0 0
814 1 -21.82887891551093 -20.501913018269175 0.925571750597038 0 0 0
815 1 -20.162552280739103 -18.14537129203134 0.9161942655890327 0 0 0
816 1 -21.82887891551093 -20.501913018269175 3.811734144027109 0 0 0
822 1 -17.66306232858136 -18.14537129203134 2.389146970744224 0 0 0
823 1 -17.663062328581365 -18.14537129203134 5.275309364174296 0 0 0
824 1 -20.162552280739103 -18.14537129203134 3.802356659019104 0 0 0
826 1 -19.32938896335319 -20.501913018269175 5.282312898612794 0 0 0
827 1 -21.828878915510927 -20.501913018269175 6.697896537457178 0 0 0
828 1 -20.162552280739103 -18.14537129203134 6.688519052449175 0 0 0
935 1 -22.662042232896844 -18.14537129203134 8.105462745749955 0 0 -1
936 1 -22.662042232896844 -18.14537129203134 2.333137958889817 0 0 0
947 1 -22.662042232896844 -18.14537129203134 5.219300352319887 0 0 0
562 1 -10.997755789494054 -22.85845474450701 8.30685342434584 0 0 -1
566 1 -13.497245741651795 -22.85845474450701 1.053291227369796 0 0 0
571 1 -11.830919106879968 -20.501913018269175 1.0577214329196802 0 0 0
572 1 -10.16260025114458 -18.14409351786336 1.0595486388201265 0 0 0
573 1 -10.997755789494054 -22.85845474450701 2.5345286374857015 0 0 0
574 1 -10.997755789494056 -22.85845474450701 5.4206910309157745 0 0 0
575 1 -13.497245741651795 -22.85845474450701 3.939453620799867 0 0 0
576 1 -11.83091910687997 -20.501913018269175 3.9438838263497527 0 0 0
579 1 -13.497245741651795 -22.85845474450701 6.825616014229938 0 0 0
587 1 -10.162600251144582 -18.14409351786336 3.945711032250195 0 0 0
590 1 -11.83091910687997 -20.501913018269175 6.830046219779824 0 0 0
591 1 -10.162600251144582 -18.14409351786336 6.831873425680264 0 0 0
685 1 -14.330409059037708 -20.501913018269175 8.234231409998705 0 0 -1
686 1 -15.996735693809535 -22.85845474450701 8.233950416561177 0 0 -1
687 1 -15.996735693809535 -22.85845474450701 2.4616256297010404 0 0 0
692 1 -12.664082424265882 -18.14537129203134 8.234583885142676 0 0 -1
693 1 -12.664082424265882 -18.14537129203134 2.462259098282537 0 0 0
694 1 -15.16357237642362 -18.14537129203134 0.98021911583751 0 0 0
696 1 -14.330409059037708 -20.501913018269175 2.4619066231385665 0 0 0
697 1 -14.33040905903771 -20.501913018269175 5.348069016568639 0 0 0
699 1 -15.163572376423621 -18.14537129203134 3.8663815092675824 0 0 0
700 1 -15.996735693809535 -22.85845474450701 5.347788023131109 0 0 0
712 1 -12.664082424265882 -18.14537129203134 5.348421491712608 0 0 0
713 1 -15.163572376423621 -18.14537129203134 6.752543902697654 0 0 0
334 1 -3.499285933020837 -22.85845474450701 1.2244228226732141 0 0 0
347 1 -3.4992859330208352 -22.85845474450701 4.110585216103283 0 0 0
351 1 -3.499285933020837 -22.85845474450701 6.996747609533355 0 0 0
446 1 -4.333080814609131 -20.49776287061182 8.406081243812888 0 0 -1
447 1 -5.998775885178576 -22.85845474450701 8.392858603858562 0 0 -1
448 1 -5.998775885178576 -22.85845474450701 2.6205338169984227 0 0 0
449 1 -8.498265837336314 -22.85845474450701 1.1329363062819973 0 0 0
450 1 -6.831521147972591 -20.499391942097624 1.1431253952979716 0 0 0
454 1 -8.498265837336316 -22.85845474450701 4.01909869971207 0 0 0
460 1 -5.1649368350089855 -18.137100591394358 1.1533824077974149 0 0 0
462 1 -4.33308081460913 -20.49776287061182 2.633756456952751 0 0 0
463 1 -4.333080814609132 -20.497762870611822 5.519918850382821 0 0 0
464 1 -6.831521147972589 -20.499391942097624 4.029287788728039 0 0 0
465 1 -5.164936835008985 -18.137100591394354 4.039544801227485 0 0 0
466 1 -5.998775885178576 -22.85845474450701 5.506696210428494 0 0 0
467 1 -8.498265837336316 -22.85845474450701 6.905261093142141 0 0 0
468 1 -6.831521147972588 -20.499391942097624 6.91545018215811 0 0 0
479 1 -5.164936835008985 -18.137100591394354 6.925707194657555 0 0 0
568 1 -7.66307234544577 -18.140966825576236 8.31940491551644 0 0 -1
569 1 -9.331429154722228 -20.501913018269175 8.316238933157791 0 0 -1
570 1 -9.331429154722228 -20.501913018269175 2.5439141462976527 0 0 0
585 1 -7.663072345445769 -18.140966825576236 2.547080128656295 0 0 0
586 1 -7.66307234544577 -18.14096682557624 5.433242522086367 0 0 0
589 1 -9.331429154722228 -20.501913018269175 5.4300765397277235 0 0 0
232 1 1.4996939712946444 -22.85845474450701 1.322178371544537 0 0 0
233 1 3.1601330932486094 -20.500637213429233 1.350677384927188 0 0 0
237 1 1.4996939712946444 -22.85845474450701 4.208340764974609 0 0 0
248 1 3.1601330932486107 -20.500637213429233 4.236839778357258 0 0 0
251 1 1.4996939712946444 -22.85845474450701 7.094503158404679 0 0 0
252 1 3.1601330932486102 -20.500637213429233 7.123002171787329 0 0 0
330 1 -0.9997959808630971 -22.85845474450701 8.488415680100957 0 0 -1
340 1 2.32399887335617 -18.139886694373818 8.54443492289797 0 0 -1
341 1 0.6614748957142069 -20.497746468197107 8.510798870836386 0 0 -1
342 1 0.6614748957142065 -20.49774646819711 2.7384740839762474 0 0 0
343 1 -1.8357573701683199 -20.496950631000416 1.2417497378488755 0 0 0
344 1 -0.17285764516952135 -18.13472676425621 1.2664462027454948 0 0 0
345 1 -0.9997959808630971 -22.85845474450701 2.716090893240817 0 0 0
346 1 -0.9997959808630971 -22.85845474450701 5.602253286670887 0 0 0
348 1 -1.83575737016832 -20.496950631000416 4.127912131278943 0 0 0
357 1 2.323998873356167 -18.139886694373818 2.7721101360378313 0 0 0
358 1 2.323998873356168 -18.139886694373818 5.658272529467902 0 0 0
359 1 -0.17285764516952024 -18.13472676425621 4.152608596175563 0 0 0
361 1 0.6614748957142057 -20.497746468197104 5.624636477406318 0 0 0
362 1 -1.8357573701683192 -20.496950631000416 7.014074524709012 0 0 0
363 1 -0.17285764516952132 -18.134726764256207 7.038770989605633 0 0 0
458 1 -2.668492791611414 -18.134371009647936 8.423052260984395 0 0 -1
459 1 -2.668492791611414 -18.134371009647936 2.6507274741242557 0 0 0
478 1 -2.6684927916114143 -18.134371009647932 5.536889867554324 0 0 0
128 1 8.998163827767865 -22.85845474450701 0.01945535493554229 0 0 0
132 1 6.498673875610124 -22.85845474450701 1.4178869938856509 0 0 0
142 1 8.165000510381951 -20.501913018269175 1.4633914967507429 0 0 0
143 1 9.831031168217383 -18.153405940097855 1.5136034417964952 0 0 0
144 1 8.998163827767865 -22.85845474450701 2.905617748365614 0 0 0
145 1 8.998163827767865 -22.85845474450701 5.791780141795684 0 0 0
146 1 6.498673875610122 -22.85845474450701 4.304049387315721 0 0 0
147 1 8.165000510381951 -20.501913018269175 4.349553890180814 0 0 0
150 1 6.498673875610124 -22.85845474450701 7.190211780745793 0 0 0
158 1 9.831031168217383 -18.15340594009785 4.3997658352265665 0 0 0
161 1 8.16500051038195 -20.501913018269175 7.235716283610884 0 0 0
162 1 9.83103116821738 -18.153405940097855 7.285928228656636 0 0 0
229 1 5.661508937569771 -20.50451032636312 8.622071730874701 0 0 -1
230 1 3.9991839234523843 -22.85845474450701 8.586224005497845 0 0 -1
231 1 3.9991839234523843 -22.85845474450701 2.8138992186377063 0 0 0
242 1 7.327470008479414 -18.15414863947212 0.014488453343079844 0 0 0
243 1 7.3274700084794135 -18.154148639472115 2.9006508467731504 0 0 0
244 1 4.8242639756792345 -18.148714325552316 1.3939441205352325 0 0 0
246 1 5.661508937569772 -20.50451032636312 2.849746944014562 0 0 0
247 1 5.661508937569772 -20.50451032636312 5.735909337444629 0 0 0
249 1 4.8242639756792345 -18.14871432555232 4.280106513965306 0 0 0
250 1 3.9991839234523843 -22.85845474450701 5.700061612067778 0 0 0
262 1 7.3274700084794135 -18.15414863947212 5.7868132402032195 0 0 0
263 1 4.824263975679233 -18.14871432555232 7.166268907395374 0 0 0
3 1 16.49663368424108 -22.85845474450701 1.5774092418802863 0 0 0
12 1 16.49663368424108 -22.85845474450701 4.463571635310357 0 0 0
15 1 16.49663368424108 -22.85845474450701 7.3497340287404285 0 0 0
52 1 15.66347036685517 -20.501913018269175 0.14597358543746847 0 0 0
53 1 13.997143732083343 -22.85845474450701 0.09941842162350567 0 0 0
54 1 13.997143732083343 -22.85845474450701 2.985580815053577 0 0 0
55 1 11.497653779925606 -22.85845474450701 1.5041799088007695 0 0 0
56 1 13.163980414697432 -20.501913018269175 1.5513501118819162 0 0 0
60 1 11.497653779925606 -22.85845474450701 4.390342302230841 0 0 0
67 1 14.83030704946926 -18.14537129203134 1.6030614855150151 0 0 0
69 1 15.66347036685517 -20.501913018269175 3.0321359788675397 0 0 0
70 1 15.66347036685517 -20.501913018269175 5.918298372297611 0 0 0
71 1 13.163980414697432 -20.501913018269175 4.437512505311987 0 0 0
72 1 14.83030704946926 -18.14537129203134 4.4892238789450865 0 0 0
73 1 13.997143732083343 -22.85845474450701 5.871743208483648 0 0 0
74 1 11.497653779925605 -22.85845474450701 7.276504695660911 0 0 0
75 1 13.163980414697432 -20.501913018269175 7.323674898742058 0 0 0
86 1 14.83030704946926 -18.14537129203134 7.375386272375158 0 0 0
139 1 12.332325963420047 -18.152369972435363 0.1189658141173015 0 0 0
140 1 10.66449046253969 -20.501913018269175 0.06635765599723797 0 0 0
141 1 10.66449046253969 -20.501913018269175 2.952520049427309 0 0 0
156 1 12.332325963420049 -18.152369972435366 3.005128207547372 0 0 0
157 1 12.332325963420047 -18.152369972435366 5.8912906009774435 0 0 0
160 1 10.66449046253969 -20.501913018269175 5.8386824428573805 0 0 0
1 1 18.996123636398824 -22.85845474450701 0.1659124451705079 0 0 0
5 1 22.328776905942476 -18.14537129203134 0.25484624343604095 0 0 0
6 1 20.662450271170652 -20.501913018269175 0.20957696632015282 0 0 0
7 1 20.662450271170652 -20.501913018269175 3.0957393597502243 0 0 0
8 1 18.162960319012907 -20.501913018269175 1.6227213236273514 0 0 0
9 1 19.82928695378473 -18.14537129203134 1.670429358733481 0 0 0
10 1 18.996123636398824 -22.85845474450701 3.0520748386005794 0 0 0
11 1 18.996123636398824 -22.85845474450701 5.93823723203065 0 0 0
13 1 18.162960319012907 -20.501913018269175 4.508883717057422 0 0 0
21 1 22.328776905942476 -18.14537129203134 3.1410086368661125 0 0 0
22 1 22.328776905942476 -18.14537129203134 6.027171030296183 0 0 0
23 1 19.82928695378473 -18.14537129203134 4.556591752163552 0 0 0
25 1 20.662450271170652 -20.501913018269175 5.981901753180295 0 0 0
26 1 18.162960319012907 -20.501913018269175 7.395046110487494 0 0 0
27 1 19.82928695378473 -18.14537129203134 7.442754145593623 0 0 0
65 1 17.329797001626996 -18.14537129203134 0.19590852109349527 0 0 0
66 1 17.329797001626996 -18.14537129203134 3.0820709145235665 0 0 0
85 1 17.329797001626996 -18.14537129203134 5.968233307953637 0 0 0
937 1 -23.495205550282755 -15.788829565793502 0.8524831370240304 0 0 0
945 1 -23.495205550282755 -15.788829565793502 3.738645530454101 0 0 0
948 1 -23.495205550282755 -15.788829565793502 6.624807923884172 0 0 0
1051 1 -24.32836886766867 -13.432287839555666 8.028614465555748 0 0 -1
1055 1 -25.161532185054583 -11.07574611331783 0.7727207147045778 0 0 0
1057 1 -24.32836886766867 -13.432287839555666 2.256289678695608 0 0 0
1058 1 -24.328368867668672 -13.432287839555666 5.142452072125681 0 0 0
1059 1 -25.161532185054583 -11.07574611331783 3.6588831081346505 0 0 0
1070 1 -25.161532185054583 -11.07574611331783 6.545045501564722 0 0 0
1162 1 -27.66102213721232 -11.07574611331783 7.972459402156855 0 0 -1
1168 1 -27.66102213721232 -11.07574611331783 2.2001346152967165 0 0 0
1169 1 -27.661022137212324 -11.07574611331783 5.086297008726789 0 0 0
820 1 -18.496225645967275 -15.788829565793502 0.904690789042013 0 0 0
821 1 -16.828627179154214 -13.434546285298849 0.8916144307504867 0 0 0
825 1 -18.49622564596728 -15.788829565793502 3.7908531824720857 0 0 0
836 1 -16.828627179154218 -13.43454628529885 3.7777768241805565 0 0 0
839 1 -18.49622564596728 -15.788829565793502 6.677015575902157 0 0 0
840 1 -16.828627179154214 -13.434546285298849 6.663939217610627 0 0 0
934 1 -20.995715598125017 -15.788829565793502 8.092061753234871 0 0 -1
938 1 -17.66244344400756 -11.079974831951263 8.058092252764368 0 0 -1
939 1 -19.32938896335319 -13.432287839555666 8.075593257411686 0 0 -1
940 1 -19.32938896335319 -13.432287839555666 2.3032684705515463 0 0 0
941 1 -21.828878915510927 -13.432287839555666 0.8347992091391914 0 0 0
942 1 -20.162552280739106 -11.07574611331783 0.8131069558373489 0 0 0
943 1 -20.995715598125017 -15.788829565793502 2.319736966374731 0 0 0
944 1 -20.995715598125017 -15.788829565793502 5.205899359804804 0 0 0
946 1 -21.82887891551093 -13.432287839555666 3.720961602569264 0 0 0
954 1 -17.66244344400756 -11.07997483195126 2.285767465904228 0 0 0
955 1 -17.66244344400756 -11.079974831951263 5.171929859334299 0 0 0
956 1 -20.162552280739103 -11.07574611331783 3.6992693492674182 0 0 0
958 1 -19.32938896335319 -13.432287839555666 5.189430863981618 0 0 0
959 1 -21.82887891551093 -13.432287839555666 6.607123995999335 0 0 0
960 1 -20.162552280739106 -11.07574611331783 6.58543174269749 0 0 0
1053 1 -22.662042232896844 -11.07574611331783 8.006568016696463 0 0 -1
1054 1 -22.662042232896844 -11.07574611331783 2.234243229836324 0 0 0
1069 1 -22.662042232896844 -11.07574611331783 5.120405623266395 0 0 0
691 1 -10.99362755389567 -15.787811087105208 8.230187633374726 0 0 -1
695 1 -13.494704238737242 -15.789578155807364 0.9743514483196061 0 0 0
706 1 -11.825662279415118 -13.432528686170325 0.9655728655017417 0 0 0
707 1 -10.15904975103824 -11.072671520012783 0.9532460012515659 0 0 0
708 1 -10.993627553895669 -15.787811087105208 2.457862846514587 0 0 0
709 1 -10.99362755389567 -15.78781108710521 5.344025239944657 0 0 0
710 1 -13.494704238737244 -15.789578155807362 3.8605138417496776 0 0 0
711 1 -11.825662279415116 -13.432528686170324 3.8517352589318103 0 0 0
714 1 -13.494704238737242 -15.789578155807364 6.746676235179745 0 0 0
722 1 -10.159049751038237 -11.072671520012786 3.8394083946816355 0 0 0
725 1 -11.825662279415116 -13.432528686170324 6.737897652361882 0 0 0
726 1 -10.159049751038237 -11.072671520012785 6.725570788111705 0 0 0
817 1 -14.326980636342107 -13.434823282574639 8.141972417515413 0 0 -1
818 1 -15.996735693809535 -15.788829565793502 8.152733031702518 0 0 -1
819 1 -15.996735693809535 -15.788829565793502 2.380408244842378 0 0 0
830 1 -12.660335584052204 -11.078354194198333 8.126891117764186 0 0 -1
831 1 -12.660335584052204 -11.078354194198333 2.354566330904044 0 0 0
832 1 -15.161517780954592 -11.080575732203775 0.8750928767671697 0 0 0
834 1 -14.326980636342107 -13.43482328257464 2.369647630655272 0 0 0
835 1 -14.326980636342107 -13.43482328257464 5.255810024085339 0 0 0
837 1 -15.161517780954593 -11.080575732203775 3.7612552701972404 0 0 0
838 1 -15.996735693809535 -15.788829565793502 5.266570638272449 0 0 0
850 1 -12.660335584052202 -11.078354194198331 5.240728724334115 0 0 0
851 1 -15.161517780954592 -11.080575732203773 6.6474176636273095 0 0 0
461 1 -3.498833133112136 -15.77150908005487 1.1678979266256238 0 0 0
476 1 -3.498833133112136 -15.771509080054868 4.054060320055696 0 0 0
480 1 -3.4988331331121345 -15.771509080054868 6.940222713485766 0 0 0
580 1 -4.32793735826949 -13.40957655179703 8.335436724620978 0 0 -1
581 1 -5.99525527436626 -15.777247125904795 8.325958503982612 0 0 -1
582 1 -5.995255274366259 -15.777247125904799 2.553633717122471 0 0 0
583 1 -8.493644718302736 -15.78327780063068 1.0598239096503663 0 0 0
584 1 -6.825453392472656 -13.418964818205627 1.0606917072983693 0 0 0
588 1 -8.493644718302738 -15.783277800630678 3.945986303080437 0 0 0
595 1 -5.158359994584789 -11.050254306841763 1.0611875645300097 0 0 0
597 1 -4.327937358269491 -13.409576551797029 2.563111937760839 0 0 0
598 1 -4.327937358269491 -13.409576551797029 5.449274331190908 0 0 0
599 1 -6.825453392472656 -13.418964818205627 3.9468541007284386 0 0 0
600 1 -5.158359994584789 -11.05025430684176 3.9473499579600806 0 0 0
601 1 -5.995255274366259 -15.777247125904799 5.439796110552538 0 0 0
602 1 -8.493644718302736 -15.783277800630678 6.832148696510507 0 0 0
603 1 -6.825453392472656 -13.418964818205627 6.833016494158509 0 0 0
614 1 -5.1583599945847896 -11.050254306841762 6.83351235139015 0 0 0
703 1 -7.658077324712618 -11.063145099989883 8.217705712244658 0 0 -1
704 1 -9.324982679789969 -13.42711805713817 8.225177307747865 0 0 -1
705 1 -9.324982679789969 -13.427118057138168 2.452852520887726 0 0 0
720 1 -7.658077324712618 -11.063145099989883 2.4453809253845193 0 0 0
721 1 -7.658077324712616 -11.063145099989883 5.3315433188145915 0 0 0
724 1 -9.324982679789967 -13.427118057138166 5.3390149143177945 0 0 0
355 1 1.4910501941274357 -15.775379243838614 1.3034128894067172 0 0 0
356 1 3.15945363177673 -13.426786352391158 1.3628215086137145 0 0 0
360 1 1.4910501941274368 -15.775379243838614 4.1895752828367865 0 0 0
371 1 3.15945363177673 -13.426786352391158 4.2489839020437845 0 0 0
374 1 1.4910501941274361 -15.775379243838612 7.075737676266858 0 0 0
375 1 3.1594536317767306 -13.426786352391158 7.135146295473855 0 0 0
457 1 -1.0041309686730264 -15.769485520855088 8.447650562820124 0 0 -1
469 1 2.3290804223546306 -11.054799159452152 8.549608428403955 0 0 -1
470 1 0.6607756016914758 -13.40634026352272 8.485734363534114 0 0 -1
471 1 0.6607756016914764 -13.40634026352272 2.713409576673968 0 0 0
472 1 -1.832997680115527 -13.402881311823103 1.1894748590109727 0 0 0
473 1 -0.16768499994580147 -11.033086201380462 1.2233248070264109 0 0 0
474 1 -1.0041309686730242 -15.769485520855088 2.675325775959985 0 0 0
475 1 -1.0041309686730255 -15.769485520855088 5.5614881693900555 0 0 0
477 1 -1.8329976801155279 -13.402881311823101 4.075637252441043 0 0 0
486 1 2.329080422354631 -11.05479915945215 2.7772836415438142 0 0 0
487 1 2.3290804223546298 -11.05479915945215 5.6634460349738855 0 0 0
488 1 -0.16768499994580333 -11.033086201380462 4.109487200456482 0 0 0
490 1 0.660775601691476 -13.406340263522722 5.5995719701040425 0 0 0
491 1 -1.8329976801155268 -13.402881311823107 6.961799645871111 0 0 0
492 1 -0.1676849999458022 -11.033086201380462 6.99564959388655 0 0 0
593 1 -2.6613977595785925 -11.037022367267136 8.348783691078207 0 0 -1
594 1 -2.661397759578593 -11.037022367267134 2.57645890421807 0 0 0
613 1 -2.661397759578591 -11.037022367267134 5.462621297648137 0 0 0
241 1 9.000173904494417 -15.8058576153291 0.08042754061662866 0 0 0
245 1 6.496394435888301 -15.804665900175127 1.4572746495926834 0 0 0
256 1 8.174807784849264 -13.458272405678484 1.5419622026124906 0 0 0
257 1 9.85474954650512 -11.105179133808559 1.6409632378834784 0 0 0
258 1 9.000173904494416 -15.805857615329097 2.966589934046699 0 0 0
259 1 9.000173904494417 -15.805857615329096 5.85275232747677 0 0 0
260 1 6.496394435888303 -15.804665900175127 4.343437043022752 0 0 0
261 1 8.174807784849264 -13.458272405678484 4.428124596042558 0 0 0
264 1 6.496394435888302 -15.804665900175127 7.2295994364528235 0 0 0
272 1 9.854749546505122 -11.105179133808559 4.527125631313549 0 0 0
275 1 8.174807784849264 -13.458272405678484 7.314286989472628 0 0 0
276 1 9.854749546505122 -11.105179133808559 7.413288024743618 0 0 0
352 1 5.67021421002395 -13.456174888705151 0.020442671741209662 0 0 0
353 1 3.990782697338738 -15.790062411028082 8.595536463838709 0 0 -1
354 1 3.9907826973387395 -15.790062411028082 2.8232116769785662 0 0 0
365 1 7.355917334422855 -11.11110991598628 0.13070840038527531 0 0 0
366 1 7.3559173344228554 -11.11110991598628 3.0168707938153436 0 0 0
367 1 4.851400559036359 -11.111408591796817 1.482530096634526 0 0 0
369 1 5.670214210023952 -13.456174888705151 2.906605065171279 0 0 0
370 1 5.670214210023952 -13.45617488870515 5.79276745860135 0 0 0
372 1 4.851400559036358 -11.111408591796813 4.368692490064595 0 0 0
373 1 3.9907826973387395 -15.790062411028083 5.7093740704086375 0 0 0
385 1 7.355917334422855 -11.11110991598628 5.903033187245414 0 0 0
386 1 4.8514005590363585 -11.111408591796815 7.254854883494668 0 0 0
68 1 16.496633684241086 -15.788829565793502 1.658521263902799 0 0 0
83 1 16.496633684241086 -15.788829565793502 4.54468365733287 0 0 0
87 1 16.496633684241086 -15.788829565793502 7.430846050762941 0 0 0
151 1 15.66870526570479 -13.439774895650247 0.2457412085396483 0 0 0
152 1 14.000124891451037 -15.797091389574243 0.18020253207447104 0 0 0
153 1 14.00012489145104 -15.797091389574241 3.0663649255045407 0 0 0
154 1 11.501635542357342 -15.802996818022534 1.5786206529865812 0 0 0
155 1 13.172954809269626 -13.447374625607385 1.651841743170518 0 0 0
159 1 11.501635542357338 -15.802996818022534 4.464783046416653 0 0 0
166 1 14.84391936363421 -11.088408276486708 1.7277749231672923 0 0 0
168 1 15.668705265704792 -13.439774895650245 3.1319036019697166 0 0 0
169 1 15.668705265704792 -13.439774895650247 6.0180659953997875 0 0 0
170 1 13.172954809269626 -13.447374625607383 4.538004136600586 0 0 0
171 1 14.843919363634209 -11.08840827648671 4.613937316597359 0 0 0
172 1 14.00012489145104 -15.797091389574243 5.952527318934613 0 0 0
173 1 11.501635542357342 -15.802996818022534 7.3509454398467255 0 0 0
174 1 13.172954809269626 -13.447374625607386 7.424166530030656 0 0 0
185 1 14.843919363634209 -11.08840827648671 7.50009971002743 0 0 0
253 1 12.350140987698433 -11.096781325040876 0.24760161300419986 0 0 0
254 1 10.67540778517305 -13.454221819834615 0.16070940086835986 0 0 0
255 1 10.67540778517305 -13.454221819834617 3.0468717942984322 0 0 0
270 1 12.350140987698435 -11.096781325040876 3.1337640064342707 0 0 0
271 1 12.350140987698433 -11.096781325040874 6.01992639986434 0 0 0
274 1 10.67540778517305 -13.454221819834615 5.9330341877285 0 0 0
19 1 21.49561358855656 -15.788829565793502 1.7196371460935644 0 0 0
20 1 23.161940223328386 -13.432287839555666 1.7692591755506415 0 0 0
24 1 21.49561358855656 -15.788829565793502 4.605799539523636 0 0 0
34 1 23.161940223328386 -13.432287839555666 4.655421568980713 0 0 0
37 1 21.49561358855656 -15.788829565793502 7.491961932953707 0 0 0
38 1 23.161940223328386 -13.432287839555666 7.541583962410784 0 0 0
64 1 18.99612363639882 -15.788829565793502 0.2483174888763207 0 0 0
76 1 22.328776905942476 -11.07574611331783 0.35539338830395906 0 0 0
77 1 20.66245027117065 -13.432287839555666 0.3019560905798957 0 0 0
78 1 20.66245027117065 -13.432287839555666 3.188118484009967 0 0 0
79 1 18.16296031901291 -13.432287839555668 1.7163986359901795 0 0 0
80 1 19.829286953784738 -11.075746113317832 1.7749537484385223 0 0 0
81 1 18.99612363639882 -15.788829565793502 3.134479882306392 0 0 0
82 1 18.99612363639882 -15.788829565793502 6.020642275736463 0 0 0
84 1 18.16296031901291 -13.432287839555668 4.602561029420251 0 0 0
93 1 22.328776905942476 -11.07574611331783 3.2415557817340304 0 0 0
94 1 22.328776905942476 -11.07574611331783 6.127718175164102 0 0 0
95 1 19.829286953784738 -11.075746113317832 4.661116141868593 0 0 0
97 1 20.66245027117065 -13.432287839555666 6.074280877440038 0 0 0
98 1 18.16296031901291 -13.432287839555668 7.488723422850322 0 0 0
99 1 19.829286953784738 -11.075746113317832 7.547278535298664 0 0 0
164 1 17.337104690160842 -11.081238920365294 0.3122036582591494 0 0 0
165 1 17.337104690160842 -11.081238920365294 3.198366051689218 0 0 0
184 1 17.337104690160842 -11.081238920365298 6.084528445119289 0 0 0
16 1 25.66143017548613 -13.432287839555666 0.346823678746608 0 0 0
17 1 23.995103540714304 -15.788829565793502 0.3008987521653691 0 0 0
18 1 23.995103540714304 -15.788829565793502 3.1870611455954405 0 0 0
28 1 27.327756810257956 -11.07574611331783 0.39172505641797345 0 0 0
29 1 27.327756810257956 -11.07574611331783 3.277887449848045 0 0 0
30 1 24.828266858100214 -11.07574611331783 1.8181546241777329 0 0 0
32 1 25.66143017548613 -13.432287839555666 3.2329860721766797 0 0 0
33 1 25.66143017548613 -13.432287839555666 6.1191484656067505 0 0 0
35 1 24.828266858100214 -11.07574611331783 4.704317017607804 0 0 0
36 1 23.995103540714304 -15.788829565793502 6.073223539025511 0 0 0
42 1 27.327756810257956 -11.07574611331783 6.164049843278116 0 0 0
43 1 24.828266858100214 -11.07574611331783 7.590479411037875 0 0 0
1056 1 -23.49520555028276 -8.719204387079994 0.7464531167800583 0 0 0
1067 1 -23.495205550282755 -8.719204387079994 3.6326155102101274 0 0 0
1071 1 -23.49520555028276 -8.719204387079994 6.518777903640199 0 0 0
1163 1 -24.328368867668672 -6.362662660842157 7.916900987265019 0 0 -1
1164 1 -25.994695502440496 -8.719204387079994 7.947017682064269 0 0 -1
1165 1 -25.994695502440496 -8.719204387079994 2.17469289520413 0 0 0
1166 1 -28.494185454598234 -8.719204387079994 0.7190864872969263 0 0 0
1167 1 -26.82785881982641 -6.362662660842157 0.6905302038799626 0 0 0