LAMMPS (30 Mar 2026 - Development - patch_30Mar2026-316-gee93998fe5-modified)
  using 1 OpenMP thread(s) per MPI task
# LAMMPS Input File
# Licensed under CC BY 4.0
# A Set of Materials-Science Tutorials for the LAMMPS Simulation Package
# Appendix (HPC offload): lattice thermal conductivity of crystalline germanium
# by reverse non-equilibrium MD (Mueller-Plathe momentum swap), for a classical
# (Tersoff) and a machine-learned (SNAP) potential.
#
# This is the same method as Tutorial 8 (silicon) but set up for a more powerful
# machine: larger cells, longer runs, and an MPI domain decomposition along the
# long (z) axis.  The SNAP runs are ~100x more expensive than Tersoff and are
# meant to be run on many cores.  NOT an interactive tutorial input.
#
# Parameters are passed on the command line, e.g.
#   mpirun -np 256 lmp -in kappa_ge.lmp -v tag tersoff -v pot pot_ge_tersoff.mod \
#                      -v a0 5.658 -v ncross 6 -v nz 40 80 120 160 200
#   mpirun -np 512 lmp -in kappa_ge.lmp -v tag snap    -v pot pot_ge_snap.mod \
#                      -v a0 5.760 -v ncross 6 -v nz 20 40 60 80
# Each length writes one record to kappa_${tag}.yaml and a temperature profile
# profile_${tag}_${nz}.dat; analyze both potentials together with plot_ge.py.

variable swap  equal 100                 # momentum swap every 100 steps (0.1 ps)

print "# finite-size RNEMD thermal conductivity of germanium (${tag})"     file kappa_${tag}.yaml screen no
print "# finite-size RNEMD thermal conductivity of germanium (${tag})"     file kappa_tersoff.yaml screen no
print "# records: ncells length_A edelta_eV time_ps area_A2 (heat along z, 20 slabs)"     append kappa_${tag}.yaml screen no
print "# records: ncells length_A edelta_eV time_ps area_A2 (heat along z, 20 slabs)"     append kappa_tersoff.yaml screen no

label loop
clear
  using 1 OpenMP thread(s) per MPI task
units metal
atom_style atomic
boundary p p p
lattice diamond ${a0}
lattice diamond 5.658
Lattice spacing in x,y,z = 5.658 5.658 5.658
region box block 0 ${ncross} 0 ${ncross} 0 ${nz}
region box block 0 6 0 ${ncross} 0 ${nz}
region box block 0 6 0 6 0 ${nz}
region box block 0 6 0 6 0 40
create_box 1 box
Created orthogonal box = (0 0 0) to (33.948 33.948 226.32)
  2 by 2 by 16 MPI processor grid
create_atoms 1 box
Created 11520 atoms
  using lattice units in orthogonal box = (0 0 0) to (33.948 33.948 226.32)
  create_atoms CPU = 0.002 seconds
mass 1 72.63
include ${pot}
include pot_ge_tersoff.mod
pair_style tersoff
pair_coeff * * Ge.tersoff Ge
Reading tersoff potential file Ge.tersoff with DATE: 2016-12-21
velocity all create 300.0 4928459 mom yes rot yes dist gaussian
timestep 0.001

# 1) relax the box to its 300 K equilibrium size (each potential has its own a0)
fix npt all npt temp 300.0 300.0 0.1 iso 0.0 0.0 1.0
thermo 20000
run 30000
Neighbor list info ...
  update: every = 1 steps, delay = 0 steps, check = yes
  max neighbors/atom: 2000, page size: 100000
  master list distance cutoff = 5.1
  ghost atom cutoff = 5.1
  binsize = 2.55, bins = 14 14 89
  1 neighbor lists, perpetual/occasional/extra = 1 0 0
  (1) pair tersoff, perpetual
      attributes: full, newton on
      pair build: full/bin/atomonly
      stencil: full/bin/3d
      bin: standard
Per MPI rank memory allocation (min/avg/max) = 3.075 | 3.078 | 3.079 Mbytes
   Step          Temp          E_pair         E_mol          TotEng         Press          Volume    
         0   300           -48565.725      0             -48119.041     -40544.14       260826.26    
     20000   303.54003     -48278.927      0             -47826.971      334.11144      248319.66    
     30000   295.15447     -48272.829      0             -47833.359     -427.14727      248533.43    
Loop time of 8.67342 on 64 procs for 30000 steps with 11520 atoms

Performance: 298.844 ns/day, 0.080 hours/ns, 3458.841 timesteps/s, 39.846 Matom-step/s
97.3% CPU use with 64 MPI tasks x 1 OpenMP threads

MPI task timing breakdown:
Section |  min time  |  avg time  |  max time  |%varavg| %total
---------------------------------------------------------------
Pair    | 5.6503     | 6.1911     | 6.7694     |  10.2 | 71.38
Neigh   | 0.00044963 | 0.00056998 | 0.00071705 |   0.0 |  0.01
Comm    | 0.94868    | 1.5109     | 2.1261     |  22.2 | 17.42
Output  | 6.1325e-05 | 6.2624e-05 | 7.9152e-05 |   0.0 |  0.00
Modify  | 0.55256    | 0.86355    | 1.1448     |  17.7 |  9.96
Other   |            | 0.1073     |            |       |  1.24

Nlocal:            180 ave         196 max         167 min
Histogram: 1 7 4 10 20 11 6 2 1 2
Nghost:            594 ave         607 max         578 min
Histogram: 2 1 2 6 11 20 10 4 7 1
Neighs:              0 ave           0 max           0 min
Histogram: 64 0 0 0 0 0 0 0 0 0
FullNghs:         5040 ave        5488 max        4676 min
Histogram: 1 7 4 10 20 11 6 2 1 2

Total # of neighbors = 322560
Ave neighs/atom = 28
Neighbor list builds = 4
Dangerous builds = 0
unfix npt
velocity all scale 300.0

# 2) NVE + reverse-NEMD: build the steady-state temperature gradient
fix nve all nve
fix swap all thermal/conductivity ${swap} z 20
fix swap all thermal/conductivity 100 z 20
run 100000
Per MPI rank memory allocation (min/avg/max) = 3.075 | 3.078 | 3.08 Mbytes
   Step          Temp          E_pair         E_mol          TotEng         Press     
     30000   300           -48272.829      0             -47826.144     -396.14061    
     40000   299.97729     -48272.796      0             -47826.146     -407.02284    
     60000   303.0732      -48277.408      0             -47826.148     -447.87761    
     80000   298.38579     -48270.422      0             -47826.142     -338.40457    
    100000   300.93919     -48274.225      0             -47826.142     -426.59978    
    120000   302.91909     -48277.178      0             -47826.148     -435.96409    
    130000   297.77613     -48269.513      0             -47826.14      -353.97866    
Loop time of 25.3147 on 64 procs for 100000 steps with 11520 atoms

Performance: 341.304 ns/day, 0.070 hours/ns, 3950.278 timesteps/s, 45.507 Matom-step/s
98.2% CPU use with 64 MPI tasks x 1 OpenMP threads

MPI task timing breakdown:
Section |  min time  |  avg time  |  max time  |%varavg| %total
---------------------------------------------------------------
Pair    | 19.197     | 20.549     | 22.04      |  15.1 | 81.17
Neigh   | 0          | 0          | 0          |   0.0 |  0.00
Comm    | 2.6264     | 3.8052     | 5.1088     |  34.0 | 15.03
Output  | 0.00015852 | 0.00016102 | 0.00020103 |   0.0 |  0.00
Modify  | 0.10999    | 0.1236     | 0.14398    |   1.8 |  0.49
Other   |            | 0.8367     |            |       |  3.31

Nlocal:            180 ave         192 max         170 min
Histogram: 4 9 4 11 7 13 5 6 2 3
Nghost:            594 ave         604 max         582 min
Histogram: 3 2 6 5 9 11 11 4 9 4
Neighs:              0 ave           0 max           0 min
Histogram: 64 0 0 0 0 0 0 0 0 0
FullNghs:         5040 ave        5376 max        4760 min
Histogram: 4 9 4 11 7 13 5 6 2 3

Total # of neighbors = 322560
Ave neighs/atom = 28
Neighbor list builds = 0
Dangerous builds = 0

# 3) production: reset the swap accumulator and average the temperature profile
unfix swap
compute ke all ke/atom
variable temp atom c_ke/(1.5*8.617333e-5)
compute layers all chunk/atom bin/1d z lower 0.05 units reduced
fix prof all ave/chunk 200 500 400000 layers v_temp file profile_${tag}_${nz}.dat
fix prof all ave/chunk 200 500 400000 layers v_temp file profile_tersoff_${nz}.dat
fix prof all ave/chunk 200 500 400000 layers v_temp file profile_tersoff_40.dat
fix swap all thermal/conductivity ${swap} z 20
fix swap all thermal/conductivity 100 z 20
variable t0 equal $(time)
variable t0 equal 130
run 400000
Per MPI rank memory allocation (min/avg/max) = 3.2 | 3.203 | 3.205 Mbytes
   Step          Temp          E_pair         E_mol          TotEng         Press     
    130000   297.77613     -48269.513      0             -47826.14      -353.97866    
    140000   300.52999     -48273.618      0             -47826.144     -385.33631    
    160000   299.6904      -48272.368      0             -47826.145     -431.76767    
    180000   302.46793     -48276.505      0             -47826.147     -421.2859     
    200000   302.68414     -48276.828      0             -47826.147     -406.64492    
    220000   304.13762     -48278.994      0             -47826.149     -441.08433    
    240000   300.90811     -48274.181      0             -47826.144     -416.31711    
    260000   301.59994     -48275.213      0             -47826.146     -424.92223    
    280000   302.00254     -48275.811      0             -47826.145     -411.01705    
    300000   297.82748     -48269.593      0             -47826.143     -399.25175    
    320000   299.02951     -48271.381      0             -47826.142     -397.97341    
    340000   301.14441     -48274.534      0             -47826.145     -420.14817    
    360000   303.95657     -48278.722      0             -47826.147     -449.56896    
    380000   301.86682     -48275.609      0             -47826.145     -397.30965    
    400000   299.91017     -48272.695      0             -47826.144     -409.36974    
    420000   297.8117      -48269.567      0             -47826.141     -389.24392    
    440000   301.44625     -48274.981      0             -47826.144     -400.32067    
    460000   302.33676     -48276.31       0             -47826.146     -460.64578    
    480000   299.3766      -48271.898      0             -47826.142     -417.69115    
    500000   297.9626      -48269.793      0             -47826.142     -436.876      
    520000   300.27855     -48273.241      0             -47826.142     -456.26339    
    530000   301.89385     -48275.647      0             -47826.143     -416.90213    
Loop time of 104.586 on 64 procs for 400000 steps with 11520 atoms

Performance: 330.446 ns/day, 0.073 hours/ns, 3824.603 timesteps/s, 44.059 Matom-step/s
98.2% CPU use with 64 MPI tasks x 1 OpenMP threads

MPI task timing breakdown:
Section |  min time  |  avg time  |  max time  |%varavg| %total
---------------------------------------------------------------
Pair    | 80.133     | 85.132     | 91.225     |  28.4 | 81.40
Neigh   | 0          | 0          | 0          |   0.0 |  0.00
Comm    | 9.3357     | 14.942     | 21.845     |  70.6 | 14.29
Output  | 0.00056262 | 0.00057258 | 0.00071732 |   0.0 |  0.00
Modify  | 0.46219    | 0.51331    | 0.57979    |   3.3 |  0.49
Other   |            | 3.998      |            |       |  3.82

Nlocal:            180 ave         193 max         169 min
Histogram: 2 4 11 12 9 8 7 7 1 3
Nghost:            594 ave         605 max         581 min
Histogram: 3 1 7 7 5 12 12 11 4 2
Neighs:              0 ave           0 max           0 min
Histogram: 64 0 0 0 0 0 0 0 0 0
FullNghs:         5040 ave        5404 max        4732 min
Histogram: 2 4 11 12 9 8 7 7 1 3

Total # of neighbors = 322560
Ave neighs/atom = 28
Neighbor list builds = 0
Dangerous builds = 0

print "- {ncells: ${nz}, length_A: $(lz:%.3f), edelta_eV: $(f_swap:%.6f),     time_ps: $(time-v_t0:%.3f), area_A2: $(lx*ly:%.4f)}"     append kappa_${tag}.yaml screen no
print "- {ncells: ${nz}, length_A: $(lz:%.3f), edelta_eV: $(f_swap:%.6f),     time_ps: $(time-v_t0:%.3f), area_A2: $(lx*ly:%.4f)}"     append kappa_tersoff.yaml screen no
next nz
jump SELF loop
clear
  using 1 OpenMP thread(s) per MPI task
units metal
atom_style atomic
boundary p p p
lattice diamond ${a0}
lattice diamond 5.658
Lattice spacing in x,y,z = 5.658 5.658 5.658
region box block 0 ${ncross} 0 ${ncross} 0 ${nz}
region box block 0 6 0 ${ncross} 0 ${nz}
region box block 0 6 0 6 0 ${nz}
region box block 0 6 0 6 0 80
create_box 1 box
Created orthogonal box = (0 0 0) to (33.948 33.948 452.64)
  2 by 2 by 16 MPI processor grid
create_atoms 1 box
Created 23040 atoms
  using lattice units in orthogonal box = (0 0 0) to (33.948 33.948 452.64)
  create_atoms CPU = 0.001 seconds
mass 1 72.63
include ${pot}
include pot_ge_tersoff.mod
pair_style tersoff
pair_coeff * * Ge.tersoff Ge
Reading tersoff potential file Ge.tersoff with DATE: 2016-12-21
velocity all create 300.0 4928459 mom yes rot yes dist gaussian
timestep 0.001

# 1) relax the box to its 300 K equilibrium size (each potential has its own a0)
fix npt all npt temp 300.0 300.0 0.1 iso 0.0 0.0 1.0
thermo 20000
run 30000
Neighbor list info ...
  update: every = 1 steps, delay = 0 steps, check = yes
  max neighbors/atom: 2000, page size: 100000
  master list distance cutoff = 5.1
  ghost atom cutoff = 5.1
  binsize = 2.55, bins = 14 14 178
  1 neighbor lists, perpetual/occasional/extra = 1 0 0
  (1) pair tersoff, perpetual
      attributes: full, newton on
      pair build: full/bin/atomonly
      stencil: full/bin/3d
      bin: standard
Per MPI rank memory allocation (min/avg/max) = 3.087 | 3.088 | 3.089 Mbytes
   Step          Temp          E_pair         E_mol          TotEng         Press          Volume    
         0   300           -97131.45       0             -96238.043     -40544.06       521652.53    
     20000   299.69055     -96558.044      0             -95665.558      174.8124       496680.7     
     30000   298.70667     -96540.886      0             -95651.33       158.71479      496729.73    
Loop time of 15.5671 on 64 procs for 30000 steps with 23040 atoms

Performance: 166.505 ns/day, 0.144 hours/ns, 1927.138 timesteps/s, 44.401 Matom-step/s
98.2% CPU use with 64 MPI tasks x 1 OpenMP threads

MPI task timing breakdown:
Section |  min time  |  avg time  |  max time  |%varavg| %total
---------------------------------------------------------------
Pair    | 12.112     | 12.764     | 13.31      |   6.2 | 82.00
Neigh   | 0.0022232  | 0.0023747  | 0.0026585  |   0.2 |  0.02
Comm    | 1.2681     | 1.6915     | 2.3141     |  18.0 | 10.87
Output  | 5.3592e-05 | 5.4514e-05 | 6.9368e-05 |   0.0 |  0.00
Modify  | 0.71186    | 0.99592    | 1.1876     |  12.3 |  6.40
Other   |            | 0.113      |            |       |  0.73

Nlocal:            360 ave         374 max         347 min
Histogram: 1 6 4 9 19 9 4 8 3 1
Nghost:            866 ave         879 max         852 min
Histogram: 1 3 8 4 9 19 9 4 6 1
Neighs:              0 ave           0 max           0 min
Histogram: 64 0 0 0 0 0 0 0 0 0
FullNghs:        10080 ave       10472 max        9716 min
Histogram: 1 6 4 9 19 9 4 8 3 1

Total # of neighbors = 645120
Ave neighs/atom = 28
Neighbor list builds = 9
Dangerous builds = 0
unfix npt
velocity all scale 300.0

# 2) NVE + reverse-NEMD: build the steady-state temperature gradient
fix nve all nve
fix swap all thermal/conductivity ${swap} z 20
fix swap all thermal/conductivity 100 z 20
run 100000
Per MPI rank memory allocation (min/avg/max) = 3.087 | 3.088 | 3.089 Mbytes
   Step          Temp          E_pair         E_mol          TotEng         Press     
     30000   300           -96540.886      0             -95647.479      166.9968     
     40000   301.93983     -96546.668      0             -95647.484      154.17348    
     60000   300.60197     -96542.679      0             -95647.479      165.17722    
     80000   298.875       -96537.532      0             -95647.475      163.76838    
    100000   301.9724      -96546.762      0             -95647.481      171.59201    
    120000   300.24753     -96541.623      0             -95647.478      187.61343    
    130000   301.426       -96545.136      0             -95647.482      132.19132    
Loop time of 49.4826 on 64 procs for 100000 steps with 23040 atoms

Performance: 174.607 ns/day, 0.137 hours/ns, 2020.914 timesteps/s, 46.562 Matom-step/s
98.4% CPU use with 64 MPI tasks x 1 OpenMP threads

MPI task timing breakdown:
Section |  min time  |  avg time  |  max time  |%varavg| %total
---------------------------------------------------------------
Pair    | 41.024     | 42.82      | 44.681     |  14.2 | 86.54
Neigh   | 0          | 0          | 0          |   0.0 |  0.00
Comm    | 3.6927     | 5.1409     | 7.5901     |  43.0 | 10.39
Output  | 0.00017256 | 0.00017574 | 0.00022146 |   0.0 |  0.00
Modify  | 0.21022    | 0.22614    | 0.25038    |   1.6 |  0.46
Other   |            | 1.295      |            |       |  2.62

Nlocal:            360 ave         372 max         348 min
Histogram: 1 4 9 7 9 15 7 5 2 5
Nghost:            866 ave         878 max         854 min
Histogram: 5 2 5 7 11 13 7 9 4 1
Neighs:              0 ave           0 max           0 min
Histogram: 64 0 0 0 0 0 0 0 0 0
FullNghs:        10080 ave       10416 max        9744 min
Histogram: 1 4 9 7 9 15 7 5 2 5

Total # of neighbors = 645120
Ave neighs/atom = 28
Neighbor list builds = 0
Dangerous builds = 0

# 3) production: reset the swap accumulator and average the temperature profile
unfix swap
compute ke all ke/atom
variable temp atom c_ke/(1.5*8.617333e-5)
compute layers all chunk/atom bin/1d z lower 0.05 units reduced
fix prof all ave/chunk 200 500 400000 layers v_temp file profile_${tag}_${nz}.dat
fix prof all ave/chunk 200 500 400000 layers v_temp file profile_tersoff_${nz}.dat
fix prof all ave/chunk 200 500 400000 layers v_temp file profile_tersoff_80.dat
fix swap all thermal/conductivity ${swap} z 20
fix swap all thermal/conductivity 100 z 20
variable t0 equal $(time)
variable t0 equal 130
run 400000
Per MPI rank memory allocation (min/avg/max) = 3.212 | 3.213 | 3.214 Mbytes
   Step          Temp          E_pair         E_mol          TotEng         Press     
    130000   301.426       -96545.136      0             -95647.482      132.19132    
    140000   301.90125     -96546.55       0             -95647.481      152.81901    
    160000   301.13676     -96544.274      0             -95647.481      171.92512    
    180000   300.84569     -96543.407      0             -95647.481      164.66925    
    200000   301.17947     -96544.401      0             -95647.481      181.90691    
    220000   301.12524     -96544.237      0             -95647.479      171.0343     
    240000   300.04807     -96541.029      0             -95647.479      147.18518    
    260000   300.20603     -96541.499      0             -95647.478      196.43796    
    280000   302.17556     -96547.369      0             -95647.483      168.70789    
    300000   300.80846     -96543.295      0             -95647.48       175.23004    
    320000   300.64496     -96542.806      0             -95647.478      184.41527    
    340000   301.4432      -96545.185      0             -95647.479      158.75859    
    360000   301.9895      -96546.812      0             -95647.48       137.39814    
    380000   302.05728     -96547.016      0             -95647.482      147.46279    
    400000   301.8434      -96546.375      0             -95647.478      127.91214    
    420000   299.35324     -96538.953      0             -95647.472      163.24231    
    440000   300.56506     -96542.567      0             -95647.476      184.81016    
    460000   299.79237     -96540.265      0             -95647.476      174.26443    
    480000   299.93667     -96540.694      0             -95647.475      182.84175    
    500000   299.93114     -96540.675      0             -95647.473      162.57685    
    520000   302.86453     -96549.417      0             -95647.479      157.71686    
    530000   299.59471     -96539.675      0             -95647.475      191.39895    
Loop time of 199.884 on 64 procs for 400000 steps with 23040 atoms

Performance: 172.900 ns/day, 0.139 hours/ns, 2001.160 timesteps/s, 46.107 Matom-step/s
98.2% CPU use with 64 MPI tasks x 1 OpenMP threads

MPI task timing breakdown:
Section |  min time  |  avg time  |  max time  |%varavg| %total
---------------------------------------------------------------
Pair    | 161.01     | 171.7      | 180.58     |  32.1 | 85.90
Neigh   | 0          | 0          | 0          |   0.0 |  0.00
Comm    | 14.865     | 22.201     | 34.54      |  95.1 | 11.11
Output  | 0.00059121 | 0.00060037 | 0.0007701  |   0.0 |  0.00
Modify  | 0.84488    | 0.91569    | 1.0003     |   3.3 |  0.46
Other   |            | 5.068      |            |       |  2.54

Nlocal:            360 ave         375 max         342 min
Histogram: 1 3 6 12 3 13 6 10 6 4
Nghost:            866 ave         884 max         851 min
Histogram: 4 6 10 6 13 3 12 6 3 1
Neighs:              0 ave           0 max           0 min
Histogram: 64 0 0 0 0 0 0 0 0 0
FullNghs:        10080 ave       10500 max        9576 min
Histogram: 1 3 6 12 3 13 6 10 6 4

Total # of neighbors = 645120
Ave neighs/atom = 28
Neighbor list builds = 0
Dangerous builds = 0

print "- {ncells: ${nz}, length_A: $(lz:%.3f), edelta_eV: $(f_swap:%.6f),     time_ps: $(time-v_t0:%.3f), area_A2: $(lx*ly:%.4f)}"     append kappa_${tag}.yaml screen no
print "- {ncells: ${nz}, length_A: $(lz:%.3f), edelta_eV: $(f_swap:%.6f),     time_ps: $(time-v_t0:%.3f), area_A2: $(lx*ly:%.4f)}"     append kappa_tersoff.yaml screen no
next nz
jump SELF loop
clear
  using 1 OpenMP thread(s) per MPI task
units metal
atom_style atomic
boundary p p p
lattice diamond ${a0}
lattice diamond 5.658
Lattice spacing in x,y,z = 5.658 5.658 5.658
region box block 0 ${ncross} 0 ${ncross} 0 ${nz}
region box block 0 6 0 ${ncross} 0 ${nz}
region box block 0 6 0 6 0 ${nz}
region box block 0 6 0 6 0 120
create_box 1 box
Created orthogonal box = (0 0 0) to (33.948 33.948 678.96)
  1 by 2 by 32 MPI processor grid
create_atoms 1 box
Created 34560 atoms
  using lattice units in orthogonal box = (0 0 0) to (33.948 33.948 678.96)
  create_atoms CPU = 0.001 seconds
mass 1 72.63
include ${pot}
include pot_ge_tersoff.mod
pair_style tersoff
pair_coeff * * Ge.tersoff Ge
Reading tersoff potential file Ge.tersoff with DATE: 2016-12-21
velocity all create 300.0 4928459 mom yes rot yes dist gaussian
timestep 0.001

# 1) relax the box to its 300 K equilibrium size (each potential has its own a0)
fix npt all npt temp 300.0 300.0 0.1 iso 0.0 0.0 1.0
thermo 20000
run 30000
Neighbor list info ...
  update: every = 1 steps, delay = 0 steps, check = yes
  max neighbors/atom: 2000, page size: 100000
  master list distance cutoff = 5.1
  ghost atom cutoff = 5.1
  binsize = 2.55, bins = 14 14 267
  1 neighbor lists, perpetual/occasional/extra = 1 0 0
  (1) pair tersoff, perpetual
      attributes: full, newton on
      pair build: full/bin/atomonly
      stencil: full/bin/3d
      bin: standard
Per MPI rank memory allocation (min/avg/max) = 3.099 | 3.1 | 3.1 Mbytes
   Step          Temp          E_pair         E_mol          TotEng         Press          Volume    
         0   300           -145697.18      0             -144357.04     -40544.034      782478.79    
     20000   299.36017     -144829.95      0             -143492.68     -196.25097      745366.11    
     30000   300.36973     -144821.98      0             -143480.2       339.06243      744911.06    
Loop time of 22.807 on 64 procs for 30000 steps with 34560 atoms

Performance: 113.649 ns/day, 0.211 hours/ns, 1315.385 timesteps/s, 45.460 Matom-step/s
98.3% CPU use with 64 MPI tasks x 1 OpenMP threads

MPI task timing breakdown:
Section |  min time  |  avg time  |  max time  |%varavg| %total
---------------------------------------------------------------
Pair    | 18.588     | 19.504     | 20.541     |   9.5 | 85.52
Neigh   | 0.0043896  | 0.004659   | 0.0050825  |   0.2 |  0.02
Comm    | 1.1687     | 1.8762     | 3.0708     |  31.8 |  8.23
Output  | 5.5555e-05 | 5.679e-05  | 7.2602e-05 |   0.0 |  0.00
Modify  | 0.85279    | 1.296      | 1.6565     |  18.6 |  5.68
Other   |            | 0.1259     |            |       |  0.55

Nlocal:            540 ave         560 max         516 min
Histogram: 1 2 5 10 5 17 7 9 6 2
Nghost:         1082.5 ave        1107 max        1062 min
Histogram: 2 4 10 6 17 6 12 4 2 1
Neighs:              0 ave           0 max           0 min
Histogram: 64 0 0 0 0 0 0 0 0 0
FullNghs:        15120 ave       15680 max       14448 min
Histogram: 1 2 5 10 5 17 7 9 6 2

Total # of neighbors = 967680
Ave neighs/atom = 28
Neighbor list builds = 11
Dangerous builds = 0
unfix npt
velocity all scale 300.0

# 2) NVE + reverse-NEMD: build the steady-state temperature gradient
fix nve all nve
fix swap all thermal/conductivity ${swap} z 20
fix swap all thermal/conductivity 100 z 20
run 100000
Per MPI rank memory allocation (min/avg/max) = 3.099 | 3.1 | 3.1 Mbytes
   Step          Temp          E_pair         E_mol          TotEng         Press     
     30000   300           -144821.98      0             -143481.85      336.69422    
     40000   299.62778     -144820.31      0             -143481.84      367.70546    
     60000   299.30311     -144818.86      0             -143481.85      356.91077    
     80000   300.35382     -144823.56      0             -143481.85      336.5047     
    100000   301.12491     -144827.01      0             -143481.85      336.17442    
    120000   301.23093     -144827.48      0             -143481.85      350.08205    
    130000   299.7104      -144820.68      0             -143481.85      348.12494    
Loop time of 72.265 on 64 procs for 100000 steps with 34560 atoms

Performance: 119.560 ns/day, 0.201 hours/ns, 1383.796 timesteps/s, 47.824 Matom-step/s
98.6% CPU use with 64 MPI tasks x 1 OpenMP threads

MPI task timing breakdown:
Section |  min time  |  avg time  |  max time  |%varavg| %total
---------------------------------------------------------------
Pair    | 61.699     | 64.487     | 66.786     |  14.2 | 89.24
Neigh   | 0          | 0          | 0          |   0.0 |  0.00
Comm    | 3.8219     | 5.5748     | 8.7024     |  49.4 |  7.71
Output  | 0.00017953 | 0.00018195 | 0.00022709 |   0.0 |  0.00
Modify  | 0.30662    | 0.32725    | 0.35214    |   1.7 |  0.45
Other   |            | 1.876      |            |       |  2.60

Nlocal:            540 ave         559 max         527 min
Histogram: 5 5 11 10 12 13 2 3 2 1
Nghost:         1082.5 ave        1095 max        1064 min
Histogram: 1 2 5 2 9 12 11 12 5 5
Neighs:              0 ave           0 max           0 min
Histogram: 64 0 0 0 0 0 0 0 0 0
FullNghs:        15120 ave       15652 max       14756 min
Histogram: 5 5 11 10 12 13 2 3 2 1

Total # of neighbors = 967680
Ave neighs/atom = 28
Neighbor list builds = 0
Dangerous builds = 0

# 3) production: reset the swap accumulator and average the temperature profile
unfix swap
compute ke all ke/atom
variable temp atom c_ke/(1.5*8.617333e-5)
compute layers all chunk/atom bin/1d z lower 0.05 units reduced
fix prof all ave/chunk 200 500 400000 layers v_temp file profile_${tag}_${nz}.dat
fix prof all ave/chunk 200 500 400000 layers v_temp file profile_tersoff_${nz}.dat
fix prof all ave/chunk 200 500 400000 layers v_temp file profile_tersoff_120.dat
fix swap all thermal/conductivity ${swap} z 20
fix swap all thermal/conductivity 100 z 20
variable t0 equal $(time)
variable t0 equal 130
run 400000
Per MPI rank memory allocation (min/avg/max) = 3.224 | 3.225 | 3.225 Mbytes
   Step          Temp          E_pair         E_mol          TotEng         Press     
    130000   299.7104      -144820.68      0             -143481.85      348.12494    
    140000   300.45409     -144824.01      0             -143481.85      333.70903    
    160000   299.63106     -144820.33      0             -143481.85      366.46501    
    180000   299.93483     -144821.69      0             -143481.85      362.81283    
    200000   301.2531      -144827.58      0             -143481.85      346.97028    
    220000   299.80735     -144821.12      0             -143481.85      351.81125    
    240000   298.59488     -144815.7       0             -143481.84      364.36481    
    260000   301.69398     -144829.55      0             -143481.85      350.44553    
    280000   303.36361     -144837.01      0             -143481.86      341.03112    
    300000   300.73955     -144825.29      0             -143481.85      348.01195    
    320000   299.74955     -144820.86      0             -143481.85      340.99027    
    340000   300.01164     -144822.03      0             -143481.85      355.9644     
    360000   300.7738      -144825.44      0             -143481.85      314.42733    
    380000   299.17774     -144818.3       0             -143481.85      369.67467    
    400000   300.33175     -144823.46      0             -143481.85      385.05764    
    420000   301.68404     -144829.51      0             -143481.86      331.78341    
    440000   299.31575     -144818.92      0             -143481.85      356.0164     
    460000   299.36311     -144819.13      0             -143481.84      360.7533     
    480000   299.69114     -144820.59      0             -143481.84      361.68956    
    500000   297.8658      -144812.44      0             -143481.84      352.4099     
    520000   301.04584     -144826.65      0             -143481.85      330.95191    
    530000   299.25531     -144818.65      0             -143481.84      355.56803    
Loop time of 292.359 on 64 procs for 400000 steps with 34560 atoms

Performance: 118.211 ns/day, 0.203 hours/ns, 1368.182 timesteps/s, 47.284 Matom-step/s
98.5% CPU use with 64 MPI tasks x 1 OpenMP threads

MPI task timing breakdown:
Section |  min time  |  avg time  |  max time  |%varavg| %total
---------------------------------------------------------------
Pair    | 242.3      | 258.64     | 270.15     |  33.5 | 88.47
Neigh   | 0          | 0          | 0          |   0.0 |  0.00
Comm    | 14.478     | 23.234     | 42.663     | 127.5 |  7.95
Output  | 0.00065278 | 0.00066419 | 0.00081197 |   0.0 |  0.00
Modify  | 1.2162     | 1.3354     | 1.4107     |   3.6 |  0.46
Other   |            | 9.145      |            |       |  3.13

Nlocal:            540 ave         556 max         521 min
Histogram: 1 3 4 4 13 11 15 6 4 3
Nghost:         1082.5 ave        1101 max        1066 min
Histogram: 3 2 7 9 16 9 10 3 4 1
Neighs:              0 ave           0 max           0 min
Histogram: 64 0 0 0 0 0 0 0 0 0
FullNghs:        15120 ave       15568 max       14588 min
Histogram: 1 3 4 4 13 11 15 6 4 3

Total # of neighbors = 967680
Ave neighs/atom = 28
Neighbor list builds = 0
Dangerous builds = 0

print "- {ncells: ${nz}, length_A: $(lz:%.3f), edelta_eV: $(f_swap:%.6f),     time_ps: $(time-v_t0:%.3f), area_A2: $(lx*ly:%.4f)}"     append kappa_${tag}.yaml screen no
print "- {ncells: ${nz}, length_A: $(lz:%.3f), edelta_eV: $(f_swap:%.6f),     time_ps: $(time-v_t0:%.3f), area_A2: $(lx*ly:%.4f)}"     append kappa_tersoff.yaml screen no
next nz
jump SELF loop
clear
  using 1 OpenMP thread(s) per MPI task
units metal
atom_style atomic
boundary p p p
lattice diamond ${a0}
lattice diamond 5.658
Lattice spacing in x,y,z = 5.658 5.658 5.658
region box block 0 ${ncross} 0 ${ncross} 0 ${nz}
region box block 0 6 0 ${ncross} 0 ${nz}
region box block 0 6 0 6 0 ${nz}
region box block 0 6 0 6 0 160
create_box 1 box
Created orthogonal box = (0 0 0) to (33.948 33.948 905.28)
  2 by 1 by 32 MPI processor grid
create_atoms 1 box
Created 46080 atoms
  using lattice units in orthogonal box = (0 0 0) to (33.948 33.948 905.28)
  create_atoms CPU = 0.000 seconds
mass 1 72.63
include ${pot}
include pot_ge_tersoff.mod
pair_style tersoff
pair_coeff * * Ge.tersoff Ge
Reading tersoff potential file Ge.tersoff with DATE: 2016-12-21
velocity all create 300.0 4928459 mom yes rot yes dist gaussian
timestep 0.001

# 1) relax the box to its 300 K equilibrium size (each potential has its own a0)
fix npt all npt temp 300.0 300.0 0.1 iso 0.0 0.0 1.0
thermo 20000
run 30000
Neighbor list info ...
  update: every = 1 steps, delay = 0 steps, check = yes
  max neighbors/atom: 2000, page size: 100000
  master list distance cutoff = 5.1
  ghost atom cutoff = 5.1
  binsize = 2.55, bins = 14 14 356
  1 neighbor lists, perpetual/occasional/extra = 1 0 0
  (1) pair tersoff, perpetual
      attributes: full, newton on
      pair build: full/bin/atomonly
      stencil: full/bin/3d
      bin: standard
Per MPI rank memory allocation (min/avg/max) = 3.104 | 3.106 | 3.109 Mbytes
   Step          Temp          E_pair         E_mol          TotEng         Press          Volume    
         0   300           -194262.9       0             -192476.05     -40544.02       1043305.1    
     20000   301.26746     -193106.22      0             -191311.82     -3.9698073      993628.85    
     30000   301.13058     -193090.67      0             -191297.09      176.61295      993445.86    
Loop time of 30.117 on 64 procs for 30000 steps with 46080 atoms

Performance: 86.064 ns/day, 0.279 hours/ns, 996.115 timesteps/s, 45.901 Matom-step/s
97.7% CPU use with 64 MPI tasks x 1 OpenMP threads

MPI task timing breakdown:
Section |  min time  |  avg time  |  max time  |%varavg| %total
---------------------------------------------------------------
Pair    | 24.939     | 25.986     | 27.255     |   9.4 | 86.28
Neigh   | 0.0085159  | 0.0090978  | 0.010544   |   0.3 |  0.03
Comm    | 1.1334     | 2.0788     | 3.3224     |  32.8 |  6.90
Output  | 5.9052e-05 | 5.9875e-05 | 7.1581e-05 |   0.0 |  0.00
Modify  | 1.1847     | 1.8951     | 2.3959     |  21.8 |  6.29
Other   |            | 0.1483     |            |       |  0.49

Nlocal:            720 ave         746 max         703 min
Histogram: 4 6 8 17 15 4 5 1 3 1
Nghost:           1277 ave        1294 max        1251 min
Histogram: 1 3 1 5 4 15 17 8 6 4
Neighs:              0 ave           0 max           0 min
Histogram: 64 0 0 0 0 0 0 0 0 0
FullNghs:        20160 ave       20888 max       19684 min
Histogram: 4 6 8 17 15 4 5 1 3 1

Total # of neighbors = 1290240
Ave neighs/atom = 28
Neighbor list builds = 16
Dangerous builds = 0
unfix npt
velocity all scale 300.0

# 2) NVE + reverse-NEMD: build the steady-state temperature gradient
fix nve all nve
fix swap all thermal/conductivity ${swap} z 20
fix swap all thermal/conductivity 100 z 20
run 100000
Per MPI rank memory allocation (min/avg/max) = 3.104 | 3.106 | 3.109 Mbytes
   Step          Temp          E_pair         E_mol          TotEng         Press     
     30000   300           -193090.67      0             -191303.82      169.37287    
     40000   302.16321     -193103.56      0             -191303.82      149.6461     
     60000   299.32927     -193086.68      0             -191303.82      189.22881    
     80000   300.99296     -193096.59      0             -191303.82      171.76982    
    100000   301.38993     -193098.96      0             -191303.83      153.41031    
    120000   300.25694     -193092.21      0             -191303.82      170.17047    
    130000   300.86283     -193095.82      0             -191303.83      168.05928    
Loop time of 96.3179 on 64 procs for 100000 steps with 46080 atoms

Performance: 89.703 ns/day, 0.268 hours/ns, 1038.229 timesteps/s, 47.842 Matom-step/s
98.5% CPU use with 64 MPI tasks x 1 OpenMP threads

MPI task timing breakdown:
Section |  min time  |  avg time  |  max time  |%varavg| %total
---------------------------------------------------------------
Pair    | 83.219     | 86.174     | 89.939     |  17.3 | 89.47
Neigh   | 0          | 0          | 0          |   0.0 |  0.00
Comm    | 3.7954     | 6.6289     | 11.192     |  69.6 |  6.88
Output  | 0.000186   | 0.00018934 | 0.0002443  |   0.0 |  0.00
Modify  | 0.39926    | 0.43114    | 0.45917    |   1.9 |  0.45
Other   |            | 3.084      |            |       |  3.20

Nlocal:            720 ave         737 max         700 min
Histogram: 2 3 3 5 15 16 5 8 4 3
Nghost:           1277 ave        1297 max        1260 min
Histogram: 3 4 8 5 16 15 5 3 3 2
Neighs:              0 ave           0 max           0 min
Histogram: 64 0 0 0 0 0 0 0 0 0
FullNghs:        20160 ave       20636 max       19600 min
Histogram: 2 3 3 5 15 16 5 8 4 3

Total # of neighbors = 1290240
Ave neighs/atom = 28
Neighbor list builds = 0
Dangerous builds = 0

# 3) production: reset the swap accumulator and average the temperature profile
unfix swap
compute ke all ke/atom
variable temp atom c_ke/(1.5*8.617333e-5)
compute layers all chunk/atom bin/1d z lower 0.05 units reduced
fix prof all ave/chunk 200 500 400000 layers v_temp file profile_${tag}_${nz}.dat
fix prof all ave/chunk 200 500 400000 layers v_temp file profile_tersoff_${nz}.dat
fix prof all ave/chunk 200 500 400000 layers v_temp file profile_tersoff_160.dat
fix swap all thermal/conductivity ${swap} z 20
fix swap all thermal/conductivity 100 z 20
variable t0 equal $(time)
variable t0 equal 130
run 400000
Per MPI rank memory allocation (min/avg/max) = 3.23 | 3.231 | 3.234 Mbytes
   Step          Temp          E_pair         E_mol          TotEng         Press     
    130000   300.86283     -193095.82      0             -191303.83      168.05928    
    140000   300.85279     -193095.76      0             -191303.83      153.56011    
    160000   299.31349     -193086.59      0             -191303.82      169.54814    
    180000   299.69069     -193088.83      0             -191303.82      174.70643    
    200000   301.49177     -193099.57      0             -191303.83      158.27841    
    220000   301.46656     -193099.41      0             -191303.82      173.11775    
    240000   302.98034     -193108.44      0             -191303.83      140.82327    
    260000   301.22258     -193097.96      0             -191303.83      173.22168    
    280000   300.85702     -193095.78      0             -191303.82      183.46706    
    300000   299.48643     -193087.62      0             -191303.82      169.41917    
    320000   299.9087      -193090.13      0             -191303.82      166.14683    
    340000   299.86757     -193089.88      0             -191303.82      184.67258    
    360000   300.14208     -193091.52      0             -191303.82      179.10498    
    380000   300.70149     -193094.86      0             -191303.83      171.7119     
    400000   299.58331     -193088.19      0             -191303.82      163.9939     
    420000   300.32775     -193092.63      0             -191303.82      187.72018    
    440000   300.53385     -193093.86      0             -191303.83      179.55435    
    460000   300.47582     -193093.51      0             -191303.83      157.79286    
    480000   301.55896     -193099.97      0             -191303.83      165.00625    
    500000   301.08963     -193097.17      0             -191303.83      148.68827    
    520000   299.74477     -193089.16      0             -191303.82      159.03862    
    530000   299.70556     -193088.92      0             -191303.82      150.50727    
Loop time of 380.72 on 64 procs for 400000 steps with 46080 atoms

Performance: 90.775 ns/day, 0.264 hours/ns, 1050.642 timesteps/s, 48.414 Matom-step/s
98.6% CPU use with 64 MPI tasks x 1 OpenMP threads

MPI task timing breakdown:
Section |  min time  |  avg time  |  max time  |%varavg| %total
---------------------------------------------------------------
Pair    | 330.3      | 344.2      | 356.53     |  31.1 | 90.41
Neigh   | 0          | 0          | 0          |   0.0 |  0.00
Comm    | 16.48      | 25.343     | 37.318     | 115.8 |  6.66
Output  | 0.00066509 | 0.00067281 | 0.00083355 |   0.0 |  0.00
Modify  | 1.6416     | 1.7154     | 1.7989     |   2.7 |  0.45
Other   |            | 9.462      |            |       |  2.49

Nlocal:            720 ave         741 max         697 min
Histogram: 2 2 5 6 11 16 12 6 1 3
Nghost:           1277 ave        1300 max        1256 min
Histogram: 3 1 6 12 13 14 6 5 2 2
Neighs:              0 ave           0 max           0 min
Histogram: 64 0 0 0 0 0 0 0 0 0
FullNghs:        20160 ave       20748 max       19516 min
Histogram: 2 2 5 6 11 16 12 6 1 3

Total # of neighbors = 1290240
Ave neighs/atom = 28
Neighbor list builds = 0
Dangerous builds = 0

print "- {ncells: ${nz}, length_A: $(lz:%.3f), edelta_eV: $(f_swap:%.6f),     time_ps: $(time-v_t0:%.3f), area_A2: $(lx*ly:%.4f)}"     append kappa_${tag}.yaml screen no
print "- {ncells: ${nz}, length_A: $(lz:%.3f), edelta_eV: $(f_swap:%.6f),     time_ps: $(time-v_t0:%.3f), area_A2: $(lx*ly:%.4f)}"     append kappa_tersoff.yaml screen no
next nz
jump SELF loop
clear
  using 1 OpenMP thread(s) per MPI task
units metal
atom_style atomic
boundary p p p
lattice diamond ${a0}
lattice diamond 5.658
Lattice spacing in x,y,z = 5.658 5.658 5.658
region box block 0 ${ncross} 0 ${ncross} 0 ${nz}
region box block 0 6 0 ${ncross} 0 ${nz}
region box block 0 6 0 6 0 ${nz}
region box block 0 6 0 6 0 200
create_box 1 box
Created orthogonal box = (0 0 0) to (33.948 33.948 1131.6)
  1 by 1 by 64 MPI processor grid
create_atoms 1 box
Created 57600 atoms
  using lattice units in orthogonal box = (0 0 0) to (33.948 33.948 1131.6)
  create_atoms CPU = 0.000 seconds
mass 1 72.63
include ${pot}
include pot_ge_tersoff.mod
pair_style tersoff
pair_coeff * * Ge.tersoff Ge
Reading tersoff potential file Ge.tersoff with DATE: 2016-12-21
velocity all create 300.0 4928459 mom yes rot yes dist gaussian
timestep 0.001

# 1) relax the box to its 300 K equilibrium size (each potential has its own a0)
fix npt all npt temp 300.0 300.0 0.1 iso 0.0 0.0 1.0
thermo 20000
run 30000
Neighbor list info ...
  update: every = 1 steps, delay = 0 steps, check = yes
  max neighbors/atom: 2000, page size: 100000
  master list distance cutoff = 5.1
  ghost atom cutoff = 5.1
  binsize = 2.55, bins = 14 14 444
  1 neighbor lists, perpetual/occasional/extra = 1 0 0
  (1) pair tersoff, perpetual
      attributes: full, newton on
      pair build: full/bin/atomonly
      stencil: full/bin/3d
      bin: standard
Per MPI rank memory allocation (min/avg/max) = 3.136 | 3.142 | 3.145 Mbytes
   Step          Temp          E_pair         E_mol          TotEng         Press          Volume    
         0   300           -242828.63      0             -240595.05     -40544.012      1304131.3    
     20000   300.70775     -241368.98      0             -239130.14      144.429        1241827.5    
     30000   299.70164     -241389.5       0             -239158.14      44.051637      1241910.4    
Loop time of 37.3615 on 64 procs for 30000 steps with 57600 atoms

Performance: 69.376 ns/day, 0.346 hours/ns, 802.966 timesteps/s, 46.251 Matom-step/s
98.3% CPU use with 64 MPI tasks x 1 OpenMP threads

MPI task timing breakdown:
Section |  min time  |  avg time  |  max time  |%varavg| %total
---------------------------------------------------------------
Pair    | 30.605     | 32.568     | 34.655     |  17.5 | 87.17
Neigh   | 0.015307   | 0.015948   | 0.018391   |   0.3 |  0.04
Comm    | 0.31138    | 2.2266     | 5.2066     |  75.8 |  5.96
Output  | 6.0533e-05 | 6.1416e-05 | 7.4524e-05 |   0.0 |  0.00
Modify  | 1.2109     | 2.401      | 4.2653     |  37.4 |  6.43
Other   |            | 0.1497     |            |       |  0.40

Nlocal:            900 ave         936 max         864 min
Histogram: 8 9 4 5 6 6 5 4 9 8
Nghost:        1504.77 ave        1541 max        1464 min
Histogram: 4 9 7 5 5 4 6 7 9 8
Neighs:              0 ave           0 max           0 min
Histogram: 64 0 0 0 0 0 0 0 0 0
FullNghs:        25200 ave       26208 max       24192 min
Histogram: 8 9 4 5 6 6 5 4 9 8

Total # of neighbors = 1612800
Ave neighs/atom = 28
Neighbor list builds = 22
Dangerous builds = 0
unfix npt
velocity all scale 300.0

# 2) NVE + reverse-NEMD: build the steady-state temperature gradient
fix nve all nve
fix swap all thermal/conductivity ${swap} z 20
fix swap all thermal/conductivity 100 z 20
run 100000
Per MPI rank memory allocation (min/avg/max) = 3.136 | 3.142 | 3.145 Mbytes
   Step          Temp          E_pair         E_mol          TotEng         Press     
     30000   300           -241389.5       0             -239155.92      45.962115    
     40000   298.56225     -241378.78      0             -239155.91      62.214048    
     60000   299.05199     -241382.44      0             -239155.92      59.776486    
     80000   297.60033     -241371.62      0             -239155.91      71.854551    
    100000   299.76458     -241387.74      0             -239155.91      63.553858    
    120000   298.15127     -241375.72      0             -239155.91      46.147441    
    130000   298.82349     -241380.73      0             -239155.91      72.765671    
Loop time of 119.39 on 64 procs for 100000 steps with 57600 atoms

Performance: 72.368 ns/day, 0.332 hours/ns, 837.591 timesteps/s, 48.245 Matom-step/s
98.6% CPU use with 64 MPI tasks x 1 OpenMP threads

MPI task timing breakdown:
Section |  min time  |  avg time  |  max time  |%varavg| %total
---------------------------------------------------------------
Pair    | 102.56     | 107.95     | 113.53     |  28.3 | 90.42
Neigh   | 0          | 0          | 0          |   0.0 |  0.00
Comm    | 1.9412     | 6.7281     | 13.936     | 128.0 |  5.64
Output  | 0.0001913  | 0.00019376 | 0.00023584 |   0.0 |  0.00
Modify  | 0.48652    | 0.53332    | 0.60675    |   3.1 |  0.45
Other   |            | 4.179      |            |       |  3.50

Nlocal:            900 ave         931 max         869 min
Histogram: 11 4 6 8 3 3 8 6 4 11
Nghost:        1504.98 ave        1536 max        1474 min
Histogram: 11 4 6 8 3 3 8 6 4 11
Neighs:              0 ave           0 max           0 min
Histogram: 64 0 0 0 0 0 0 0 0 0
FullNghs:        25200 ave       26068 max       24332 min
Histogram: 11 4 6 8 3 3 8 6 4 11

Total # of neighbors = 1612800
Ave neighs/atom = 28
Neighbor list builds = 0
Dangerous builds = 0

# 3) production: reset the swap accumulator and average the temperature profile
unfix swap
compute ke all ke/atom
variable temp atom c_ke/(1.5*8.617333e-5)
compute layers all chunk/atom bin/1d z lower 0.05 units reduced
fix prof all ave/chunk 200 500 400000 layers v_temp file profile_${tag}_${nz}.dat
fix prof all ave/chunk 200 500 400000 layers v_temp file profile_tersoff_${nz}.dat
fix prof all ave/chunk 200 500 400000 layers v_temp file profile_tersoff_200.dat
fix swap all thermal/conductivity ${swap} z 20
fix swap all thermal/conductivity 100 z 20
variable t0 equal $(time)
variable t0 equal 130
run 400000
Per MPI rank memory allocation (min/avg/max) = 3.261 | 3.267 | 3.27 Mbytes
   Step          Temp          E_pair         E_mol          TotEng         Press     
    130000   298.82349     -241380.73      0             -239155.91      72.765671    
    140000   298.11136     -241375.42      0             -239155.91      59.846699    
    160000   298.24715     -241376.44      0             -239155.91      51.239356    
    180000   298.5233      -241378.49      0             -239155.91      70.164451    
    200000   299.08628     -241382.69      0             -239155.91      68.39981     
    220000   298.14889     -241375.7       0             -239155.91      54.643845    
    240000   298.64354     -241379.39      0             -239155.91      70.192985    
    260000   299.38487     -241384.91      0             -239155.92      39.372422    
    280000   298.14038     -241375.64      0             -239155.91      77.257997    
    300000   298.49213     -241378.26      0             -239155.91      72.455213    
    320000   298.68506     -241379.7       0             -239155.92      51.212871    
    340000   298.81227     -241380.65      0             -239155.91      51.095452    
    360000   298.33925     -241377.13      0             -239155.91      57.810903    
    380000   299.98268     -241389.36      0             -239155.92      39.44025     
    400000   298.82638     -241380.75      0             -239155.91      67.152944    
    420000   299.98664     -241389.4       0             -239155.92      30.526006    
    440000   299.22273     -241383.7       0             -239155.91      51.749541    
    460000   298.7561      -241380.23      0             -239155.91      45.881398    
    480000   298.19298     -241376.03      0             -239155.91      82.913121    
    500000   299.19264     -241383.48      0             -239155.91      53.943557    
    520000   298.56171     -241378.78      0             -239155.91      56.375194    
    530000   299.14203     -241383.1       0             -239155.91      59.766667    
Loop time of 490.106 on 64 procs for 400000 steps with 57600 atoms

Performance: 70.515 ns/day, 0.340 hours/ns, 816.150 timesteps/s, 47.010 Matom-step/s
98.4% CPU use with 64 MPI tasks x 1 OpenMP threads

MPI task timing breakdown:
Section |  min time  |  avg time  |  max time  |%varavg| %total
---------------------------------------------------------------
Pair    | 402.43     | 432        | 463.24     |  80.2 | 88.14
Neigh   | 0          | 0          | 0          |   0.0 |  0.00
Comm    | 3.9863     | 32.427     | 77.154     | 330.1 |  6.62
Output  | 0.00066663 | 0.00067189 | 0.00081953 |   0.0 |  0.00
Modify  | 1.9639     | 2.2194     | 2.4945     |   7.1 |  0.45
Other   |            | 23.46      |            |       |  4.79

Nlocal:            900 ave         936 max         864 min
Histogram: 24 2 2 1 3 3 1 2 2 24
Nghost:        1501.22 ave        1541 max        1433 min
Histogram: 3 3 7 12 1 3 3 4 2 26
Neighs:              0 ave           0 max           0 min
Histogram: 64 0 0 0 0 0 0 0 0 0
FullNghs:        25200 ave       26208 max       24192 min
Histogram: 24 2 2 1 3 3 1 2 2 24

Total # of neighbors = 1612800
Ave neighs/atom = 28
Neighbor list builds = 0
Dangerous builds = 0

print "- {ncells: ${nz}, length_A: $(lz:%.3f), edelta_eV: $(f_swap:%.6f),     time_ps: $(time-v_t0:%.3f), area_A2: $(lx*ly:%.4f)}"     append kappa_${tag}.yaml screen no
print "- {ncells: ${nz}, length_A: $(lz:%.3f), edelta_eV: $(f_swap:%.6f),     time_ps: $(time-v_t0:%.3f), area_A2: $(lx*ly:%.4f)}"     append kappa_tersoff.yaml screen no
next nz
jump SELF loop

print "Germanium RNEMD scan (${tag}) complete: kappa_${tag}.yaml + profile_${tag}_*.dat"
Germanium RNEMD scan (tersoff) complete: kappa_tersoff.yaml + profile_tersoff_*.dat
Total wall time: 0:32:25
