LAMMPS data file via write_data, version 30 Mar 2026, timestep = 395, units = metal

72 atoms
2 atom types

0 9.842 xlo xhi
0 8.5234219868 ylo yhi
0.8539040990845036 10.123629479456092 zlo zhi

Masses

1 28.0855
2 15.999

Atoms # charge

1 1 2.5335520712945 1.9812112432301827 0.21387867460536686 1.1607197889638232 0 0 0
2 1 2.750387327705424 1.3685652262544892 2.5340528040424957 2.2915923902753796 0 0 0
3 2 -1.540270102884395 1.3783732717401485 1.4621903412230484 0.8550221987527572 0 0 0
4 2 -1.554199064996352 0.35623596547478015 1.7359047762934123 3.2431292583337217 0 0 0
5 2 -1.545410997389421 3.0861580188790336 0.40593168187275636 4.330061636382812 0 0 0
6 2 -1.571414158022831 0.8752730349590597 3.9149508976165865 1.3466969935563433 0 0 0
7 2 -1.581804432220214 2.877605059695671 2.613072406153936 2.8070118935229065 0 0 0
8 1 2.5335708678859 6.902355046872442 0.21391203484858023 1.1608522395593848 0 0 0
9 1 2.860567051952973 3.7904810481841613 1.8377493483120488 4.025384094489818 0 0 0
10 1 2.750372662528842 6.289455791246121 2.5341242249522096 2.2915367040638004 0 0 0
11 2 -1.54026256353512 6.299394893748055 1.4621448434813478 0.8550746422880937 0 0 0
12 2 -1.554192398932358 5.27730703043431 1.7359224065330183 3.2432155958679987 0 0 0
13 2 -1.545426938856237 8.006976177745978 0.40598611038911003 4.329877683999635 0 0 0
14 2 -1.57140553349775 5.795962685925313 3.9149129776766833 1.3466177142232794 0 0 0
15 2 -1.581827856420284 7.798576456660956 2.613283068232242 2.806959317470506 0 0 0
16 2 -1.482003966422763 3.7965555710977315 2.868808926209138 5.229281559367568 0 0 0
17 1 2.860572858706683 8.71136405234982 1.8378231360072115 4.02531514497985 0 0 0
18 2 -1.482007189701 8.71751713737457 2.868745222969419 5.229304334996335 0 0 0
19 2 -1.545376764780139 0.6256567809037092 4.6676289634121115 4.330095320165142 0 0 0
20 2 -1.581830510055198 0.4171659982839599 6.874759823204991 2.8070205969965127 0 0 0
21 1 2.533565839149585 4.441605738218766 4.47555632188039 1.1606146349129902 0 0 0
22 1 2.860587897314841 1.3300820499410988 6.09945818292363 4.025427226579649 0 0 0
23 1 2.750384653200054 3.8289718932743524 6.795747948851011 2.2915792409583204 0 0 0
24 2 -1.540274834545915 3.8386441809486276 5.723850617747236 0.8549856590845036 0 0 0
25 2 -1.554178173426418 2.81689426279159 5.9975082038439185 3.243287030053373 0 0 0
26 2 -1.545359507604164 5.546663592328514 4.667665372303142 4.3300908247315855 0 0 0
27 2 -1.571410364724201 3.3355829860036663 8.17659984997355 1.3467150883221237 0 0 0
28 2 -1.581838745095159 5.33815804967656 6.874726586840207 2.8068697012568014 0 0 0
29 2 -1.482012013088466 1.336143286258323 7.130363618575273 5.229316234401316 0 0 0
30 1 2.533575362788945 9.36288295813032 4.475560655261993 1.16067891788641 0 0 0
31 1 2.860583561983851 6.2510342591534975 6.099454434608006 4.025291056490049 0 0 0
32 1 2.750390725390386 8.75007345442532 6.795721462327269 2.291561873577403 0 0 0
33 2 -1.540258483025218 8.759896693462151 5.723796983954638 0.8550000558766462 0 0 0
34 2 -1.554175800177027 7.737880779849007 5.997497741254508 3.2431416683524525 0 0 0
35 2 -1.571414508650201 8.256752278779956 8.17658121058904 1.3466403325839715 0 0 0
36 2 -1.482010594373 6.257089758804831 7.130359420257711 5.229210136036198 0 0 0
37 1 2.882490702149648 2.192814890206747 8.434047492106872 5.668267662511464 0 -1 0
38 1 2.878019983725273 1.3356331216995012 2.260480077312107 7.323162862582489 0 0 0
39 2 -1.484059286763212 1.3073662200700056 1.182805890403654 6.113375495067695 0 0 0
40 2 -1.469822432028378 0.3854422392940648 1.6514510544366998 8.524745359826493 0 0 0
41 2 -1.470687163557781 3.320563290441424 0.7465624812838255 10.122237905461875 0 0 0
42 2 -1.495940912969858 0.7437483863183855 3.713259499940481 6.852479820293331 0 0 0
43 2 -1.479984317884684 2.83498649519031 2.400071442202487 7.9707516517725665 0 0 0
44 1 2.88250064715839 7.113681688623811 8.434046548996971 5.668149131671801 0 -1 0
45 1 2.768988375405605 3.806869153991153 1.7249829708213449 9.017881997095527 0 0 0
46 1 2.878035102542687 6.256605242220175 2.2604546818619338 7.323121731910043 0 0 0
47 2 -1.484048719004186 6.228273708636996 1.1827845147475036 6.113343490356379 0 0 0
48 2 -1.469796651505551 5.306465910228078 1.6514418074095003 8.524695027134905 0 0 0
49 2 -1.470690185413467 8.241461006932813 0.7465397895483075 10.122234469979226 0 0 0
50 2 -1.495928830406779 5.664801679134289 3.7132347171213023 6.852438043356939 0 0 0
51 2 -1.479968442168142 7.755933175950962 2.400043706042264 7.970735742046 0 0 0
52 2 0.001429370274883106 3.929830532405093 2.916032828843192 9.917885468879565 0 0 0
53 1 2.768989605954246 8.72783063509323 1.7249573360410906 9.01788736925059 0 0 0
54 2 0.001426617062819103 8.85077874612556 2.9160035782158817 9.917880692089476 0 0 0
55 2 -1.470613821765397 0.8601880732038413 5.008937639994037 10.122547919456093 0 0 0
56 2 -1.479991035358945 0.37453421253864555 6.661961105264143 7.970764413767457 0 0 0
57 1 2.882560911468989 4.653283686126924 4.172388485817687 5.668195912737442 0 0 0
58 1 2.768988554748231 1.3465248677595205 5.98723523320367 9.018074416348394 0 0 0
59 1 2.878022061329123 3.7962217742514883 6.522278364358578 7.3232137828796855 0 0 0
60 2 -1.484002464085748 3.7679685673231673 5.444527738753979 6.113396671764624 0 0 0
61 2 -1.469763046866902 2.8460499305175673 5.913174398272535 8.524711855712441 0 0 0
62 2 -1.470612690343592 5.781226682078794 5.008883717102483 10.122474449254327 0 0 0
63 2 -1.496003177448277 3.204347242932222 7.974973597417987 6.852548159182884 0 0 0
64 2 -1.479976071712438 5.295572932262784 6.661890978161222 7.970741765762784 0 0 0
65 2 0.001442866705088111 1.469556467607408 7.1783990184723985 9.917767342718205 0 0 0
66 1 2.882559424016332 9.57425275413519 4.172361070424206 5.6682270599728275 0 0 0
67 1 2.76899099638392 6.267558439684665 5.987211102314989 9.018047597965873 0 0 0
68 1 2.87802697447547 8.717214096456006 6.522349280191365 7.323155275409795 0 0 0
69 2 -1.484012474599268 8.68895410591487 5.4445790382676655 6.113332394229558 0 0 0
70 2 -1.469752232504505 7.767063088985702 5.913218367027045 8.524651481145572 0 0 0
71 2 -1.496010379611197 8.125272599995318 7.975026002472929 6.852427008394079 0 0 0
72 2 0.001446765120458728 6.390577642556211 7.178364690720465 9.917749782652066 0 0 0

Velocities

1 0 0 0
2 0 0 0
3 0 0 0
4 0 0 0
5 0 0 0
6 0 0 0
7 0 0 0
8 0 0 0
9 0 0 0
10 0 0 0
11 0 0 0
12 0 0 0
13 0 0 0
14 0 0 0
15 0 0 0
16 0 0 0
17 0 0 0
18 0 0 0
19 0 0 0
20 0 0 0
21 0 0 0
22 0 0 0
23 0 0 0
24 0 0 0
25 0 0 0
26 0 0 0
27 0 0 0
28 0 0 0
29 0 0 0
30 0 0 0
31 0 0 0
32 0 0 0
33 0 0 0
34 0 0 0
35 0 0 0
36 0 0 0
37 0 0 0
38 0 0 0
39 0 0 0
40 0 0 0
41 0 0 0
42 0 0 0
43 0 0 0
44 0 0 0
45 0 0 0
46 0 0 0
47 0 0 0
48 0 0 0
49 0 0 0
50 0 0 0
51 0 0 0
52 0 0 0
53 0 0 0
54 0 0 0
55 0 0 0
56 0 0 0
57 0 0 0
58 0 0 0
59 0 0 0
60 0 0 0
61 0 0 0
62 0 0 0
63 0 0 0
64 0 0 0
65 0 0 0
66 0 0 0
67 0 0 0
68 0 0 0
69 0 0 0
70 0 0 0
71 0 0 0
72 0 0 0
