LAMMPS data file via write_data, version 30 Mar 2026, timestep = 88, units = metal

792 atoms
2 atom types

0 26.0248 xlo xhi
0 17.787599999999998 ylo yhi
0.26457915458233777 19.249865433269562 zlo zhi

Masses

1 47.867
2 15.999

Atoms # charge

1 2 -1.378676663078848 3.2531027041337883 1.3426946653355231e-15 0.2670437111759784 0 0 0
5 2 -1.378676663078847 3.253102704133788 2.9646 0.2670437111759784 0 0 0
9 2 -1.378676663078848 3.2531027041337883 5.9292 0.2670437111759792 0 0 0
26 1 3.193830927706845 3.253090245452724 1.6196751133936982e-15 4.853739490408812 0 0 0
28 1 3.170242525956258 3.2531179989644916 1.4823000000000002 1.5234093349643545 0 0 0
32 2 -1.612486987897907 3.2531318788604713 7.001708021565171e-16 2.8237636914459685 0 0 0
33 2 -1.600303604947966 1.9703397065186252 1.4823000000000006 4.835828914862141 0 0 0
34 2 -1.641741754050377 5.301151920518307 1.4823000000000006 1.5179139929481715 0 0 0
35 2 -1.600299771918064 4.53576065818779 1.4823000000000004 4.835893573074903 0 0 0
36 2 -1.641746669205885 1.205057733516342 1.4823000000000002 1.5178799503238996 0 0 0
74 1 3.193830927706845 3.2530902454527255 2.9646000000000003 4.853739490408811 0 0 0
76 1 3.170242525956257 3.253117998964492 4.4469 1.5234093349643563 0 0 0
80 2 -1.612486987897908 3.2531318788604704 2.9646 2.8237636914459685 0 0 0
81 2 -1.600303604947964 1.970339706518626 4.4469 4.835828914862142 0 0 0
82 2 -1.641741754050376 5.301151920518307 4.4469 1.517913992948171 0 0 0
83 2 -1.600299771918064 4.53576065818779 4.446899999999999 4.835893573074903 0 0 0
84 2 -1.641746669205884 1.205057733516342 4.446899999999999 1.5178799503238998 0 0 0
122 1 3.193830927706844 3.2530902454527255 5.9292 4.853739490408812 0 0 0
124 1 3.170242525956258 3.2531179989644925 7.4115 1.5234093349643552 0 0 0
128 2 -1.612486987897908 3.253131878860471 5.9292 2.823763691445969 0 0 0
129 2 -1.600303604947964 1.9703397065186248 7.4115 4.835828914862142 0 0 0
130 2 -1.641741754050376 5.301151920518307 7.411499999999999 1.5179139929481713 0 0 0
131 2 -1.600299771918064 4.53576065818779 7.4115 4.835893573074903 0 0 0
132 2 -1.641746669205884 1.2050577335163415 7.411499999999999 1.5178799503238993 0 0 0
37 1 3.144901934445514 6.506188379502211 1.5373373575727027e-15 1.9126007687703217 0 0 0
41 2 -1.660622034429348 6.506088708814359 8.894704761362405e-16 3.7120375798081775 0 0 0
85 1 3.144901934445512 6.50618837950221 2.9646 1.9126007687703221 0 0 0
89 2 -1.660622034429349 6.506088708814358 2.9646000000000003 3.7120375798081784 0 0 0
133 1 3.144901934445512 6.50618837950221 5.9292 1.9126007687703217 0 0 0
137 2 -1.660622034429348 6.506088708814358 5.9292 3.712037579808178 0 0 0
2 2 -1.378602411993461 9.759233427103137 1.2357541178406414e-15 0.2666520694421929 0 0 0
6 2 -1.37860241199346 9.759233427103137 2.9646000000000003 0.2666520694421929 0 0 0
10 2 -1.37860241199346 9.759233427103139 5.9292 0.26665206944219366 0 0 0
38 1 3.193777293563601 9.758963334050911 1.8567466498217303e-15 4.854240561759974 0 0 0
39 1 3.197070646674328 6.506261418054495 1.4823000000000008 4.972569004124681 0 0 0
40 1 3.170225308496405 9.759009596738144 1.4823000000000002 1.5231510458137434 0 0 0
43 2 -1.598695453248063 6.5066358007647525 1.119168919387671e-15 6.223834839825144 0 0 0
44 2 -1.61221547301853 9.758945273268438 1.2379317976079967e-15 2.823328973709926 0 0 0
45 2 -1.600300565306354 8.476546363736126 1.4823000000000002 4.83571370756549 0 0 0
46 2 -1.642023508391575 11.807143081040033 1.4823000000000008 1.5150789311448853 0 0 0
47 2 -1.600355325074237 11.041521286723457 1.4823000000000006 4.834773289662351 0 0 0
48 2 -1.641789032793489 7.711133760379039 1.4823000000000002 1.5177048483335964 0 0 0
86 1 3.193777293563602 9.75896333405091 2.9646000000000003 4.8542405617599735 0 0 0
87 1 3.197070646674328 6.506261418054495 4.4469 4.972569004124681 0 0 0
88 1 3.170225308496405 9.759009596738142 4.446899999999999 1.5231510458137434 0 0 0
91 2 -1.598695453248064 6.506635800764753 2.9646000000000003 6.223834839825145 0 0 0
92 2 -1.612215473018531 9.758945273268438 2.9646000000000003 2.823328973709925 0 0 0
93 2 -1.600300565306354 8.476546363736126 4.4469 4.83571370756549 0 0 0
94 2 -1.642023508391574 11.807143081040033 4.4469 1.5150789311448853 0 0 0
95 2 -1.600355325074238 11.041521286723457 4.446899999999999 4.834773289662351 0 0 0
96 2 -1.641789032793488 7.711133760379039 4.4469 1.5177048483335975 0 0 0
134 1 3.193777293563602 9.75896333405091 5.9292 4.8542405617599735 0 0 0
135 1 3.197070646674327 6.506261418054495 7.4115 4.972569004124681 0 0 0
136 1 3.170225308496406 9.759009596738144 7.411499999999999 1.5231510458137436 0 0 0
139 2 -1.598695453248064 6.5066358007647525 5.9292 6.223834839825144 0 0 0
140 2 -1.61221547301853 9.758945273268438 5.9292 2.823328973709926 0 0 0
141 2 -1.600300565306354 8.476546363736125 7.4115 4.835713707565489 0 0 0
142 2 -1.642023508391574 11.807143081040033 7.4115 1.5150789311448853 0 0 0
143 2 -1.600355325074236 11.041521286723457 7.411499999999999 4.83477328966235 0 0 0
144 2 -1.641789032793488 7.711133760379039 7.411499999999999 1.5177048483335973 0 0 0
3 2 -1.378050422207127 16.265454751224176 1.266607449156335e-15 0.2665310145823378 0 0 0
7 2 -1.378050422207129 16.265454751224173 2.9646 0.26653101458233824 0 0 0
11 2 -1.378050422207128 16.265454751224176 5.9292 0.26653101458233863 0 0 0
49 1 3.144975454294727 13.012428183984259 9.471959512787737e-16 1.9065055774583555 0 0 0
50 1 3.193349229368664 16.265427503402602 1.6286071755489067e-15 4.857883334615882 0 0 0
51 1 3.197820367129105 13.012641718512732 1.4823000000000008 4.964838420317774 0 0 0
52 1 3.170132430372923 16.26541216095517 1.4823000000000008 1.5234879316048213 0 0 0
53 2 -1.660655173423418 13.012430637967121 1.3366248678667591e-15 3.705733842189352 0 0 0
55 2 -1.604894973648983 13.013070703327216 1.5620445584756953e-15 6.210748617532306 0 0 0
56 2 -1.611365396138343 16.26542353406362 5.077735007268187e-16 2.8234121933765843 0 0 0
57 2 -1.600433756703173 14.983481022152032 1.4823000000000004 4.835799873988542 0 0 0
58 2 -1.642140757015854 18.313426845156794 1.4823000000000004 1.513814654398522 0 0 0
59 2 -1.600468765855367 17.547450045761334 1.4823000000000006 4.835475169408412 0 0 0
60 2 -1.642071508463849 14.217504909616713 1.4823000000000006 1.5147736152283142 0 0 0
97 1 3.144975454294726 13.01242818398426 2.9646000000000003 1.9065055774583548 0 0 0
98 1 3.193349229368662 16.265427503402602 2.9646000000000003 4.857883334615883 0 0 0
99 1 3.197820367129106 13.012641718512732 4.4469 4.964838420317774 0 0 0
100 1 3.170132430372922 16.265412160955172 4.446899999999999 1.523487931604822 0 0 0
101 2 -1.660655173423418 13.012430637967121 2.9646 3.705733842189352 0 0 0
103 2 -1.604894973648982 13.013070703327216 2.9646 6.210748617532306 0 0 0
104 2 -1.611365396138343 16.265423534063622 2.964599999999999 2.823412193376585 0 0 0
105 2 -1.600433756703174 14.983481022152032 4.446899999999999 4.835799873988541 0 0 0
106 2 -1.642140757015855 18.313426845156794 4.446899999999999 1.513814654398522 0 0 0
107 2 -1.600468765855366 17.547450045761334 4.4469 4.835475169408412 0 0 0
108 2 -1.642071508463849 14.217504909616713 4.446899999999999 1.5147736152283149 0 0 0
145 1 3.144975454294725 13.012428183984262 5.9292 1.9065055774583555 0 0 0
146 1 3.193349229368662 16.265427503402602 5.9292 4.857883334615881 0 0 0
147 1 3.197820367129107 13.012641718512732 7.411499999999999 4.964838420317774 0 0 0
148 1 3.170132430372923 16.26541216095517 7.411499999999999 1.5234879316048218 0 0 0
149 2 -1.660655173423418 13.012430637967121 5.9292 3.7057338421893524 0 0 0
151 2 -1.604894973648983 13.013070703327216 5.9292 6.210748617532306 0 0 0
152 2 -1.611365396138344 16.26542353406362 5.9292 2.8234121933765848 0 0 0
153 2 -1.600433756703174 14.98348102215203 7.4115 4.835799873988542 0 0 0
154 2 -1.642140757015855 18.313426845156794 7.411499999999999 1.5138146543985223 0 0 0
155 2 -1.600468765855367 17.547450045761334 7.411499999999999 4.835475169408412 0 0 0
156 2 -1.642071508463849 14.217504909616713 7.4115 1.514773615228314 0 0 0
63 1 3.197899230966704 19.51856339064662 1.4823000000000013 4.962501423127997 0 0 0
67 2 -1.606254764378775 19.51827268861157 1.439603393211334e-15 6.207593718980333 0 0 0
111 1 3.197899230966704 19.518563390646623 4.446899999999999 4.962501423127996 0 0 0
115 2 -1.606254764378774 19.51827268861157 2.964600000000001 6.207593718980334 0 0 0
159 1 3.197899230966704 19.51856339064662 7.411499999999999 4.962501423127996 0 0 0
163 2 -1.606254764378774 19.51827268861157 5.929199999999999 6.207593718980334 0 0 0
25 1 3.144896001533211 26.024760489617663 1.3979362928969667e-15 1.9124214340094665 -1 0 0
27 1 3.197065644165348 26.024531549891584 1.4823000000000006 4.972323181938235 -1 0 0
29 2 -1.660677551333853 26.02471372420694 5.824482802354565e-16 3.7118700640144757 -1 0 0
31 2 -1.599401203746321 26.02410732211988 8.575205729939055e-16 6.223571565902871 -1 0 0
73 1 3.144896001533211 26.024760489617663 2.9646000000000003 1.9124214340094672 -1 0 0
75 1 3.197065644165349 26.024531549891584 4.446899999999999 4.972323181938236 -1 0 0
77 2 -1.660677551333853 26.02471372420694 2.9646000000000003 3.7118700640144757 -1 0 0
79 2 -1.599401203746322 26.02410732211988 2.9646000000000003 6.22357156590287 -1 0 0
121 1 3.14489600153321 26.024760489617663 5.9292 1.912421434009467 -1 0 0
123 1 3.197065644165349 26.02453154989158 7.4115 4.972323181938236 -1 0 0
125 2 -1.660677551333853 26.02471372420694 5.9292 3.7118700640144766 -1 0 0
127 2 -1.599401203746321 26.024107322119885 5.9292 6.223571565902871 -1 0 0
4 2 -1.377965146799566 22.771809462630888 9.392828595484312e-16 0.26700272508885664 0 0 0
8 2 -1.377965146799565 22.771809462630888 2.9646000000000003 0.26700272508885653 0 0 0
12 2 -1.377965146799564 22.77180946263089 5.9292 0.2670027250888567 0 0 0
61 1 3.1449693206675 19.518626899382433 1.0684407075883238e-15 1.9045271934480936 0 0 0
62 1 3.193301885229415 22.77210429076467 1.0057419985729428e-15 4.858350861008717 0 0 0
64 1 3.170129990897877 22.77206262753299 1.4823000000000013 1.5239264163813977 0 0 0
65 2 -1.660738622628988 19.518760718760568 1.509278056279509e-15 3.7037576516774817 0 0 0
68 2 -1.611459012082126 22.772097639438524 1.4176319810487178e-15 2.824053913320592 0 0 0
69 2 -1.600467915023013 21.48991724017045 1.482300000000001 4.836057010020301 0 0 0
70 2 -1.641787770230975 24.819861046626155 1.4823000000000013 1.5175444373388558 0 0 0
71 2 -1.600380605822573 24.054187234026873 1.4823000000000002 4.837272300460662 0 0 0
72 2 -1.642085953095074 20.723922637552356 1.4823000000000006 1.513992247940933 0 0 0
109 1 3.144969320667499 19.51862689938243 2.9646000000000003 1.9045271934480925 0 0 0
110 1 3.193301885229417 22.772104290764673 2.9646 4.8583508610087165 0 0 0
112 1 3.170129990897877 22.77206262753299 4.4469 1.523926416381398 0 0 0
113 2 -1.660738622628988 19.518760718760568 2.9646000000000003 3.7037576516774813 0 0 0
116 2 -1.611459012082126 22.772097639438524 2.9646 2.8240539133205935 0 0 0
117 2 -1.600467915023013 21.48991724017045 4.446899999999999 4.836057010020301 0 0 0
118 2 -1.641787770230975 24.819861046626155 4.446899999999999 1.517544437338856 0 0 0
119 2 -1.600380605822573 24.054187234026873 4.4469 4.837272300460662 0 0 0
120 2 -1.642085953095074 20.723922637552356 4.4469 1.513992247940932 0 0 0
157 1 3.144969320667499 19.51862689938243 5.9292 1.904527193448093 0 0 0
158 1 3.193301885229417 22.77210429076467 5.9292 4.8583508610087165 0 0 0
160 1 3.170129990897877 22.77206262753299 7.411499999999999 1.5239264163813984 0 0 0
161 2 -1.660738622628988 19.518760718760568 5.929199999999999 3.7037576516774817 0 0 0
164 2 -1.611459012082126 22.772097639438524 5.929199999999999 2.8240539133205926 0 0 0
165 2 -1.600467915023013 21.48991724017045 7.411499999999998 4.8360570100203 0 0 0
166 2 -1.641787770230975 24.819861046626155 7.411499999999999 1.5175444373388567 0 0 0
167 2 -1.600380605822574 24.05418723402687 7.411499999999999 4.837272300460663 0 0 0
168 2 -1.642085953095075 20.723922637552356 7.411499999999999 1.513992247940932 0 0 0
13 2 -1.378676663078849 3.253102704133788 8.893799999999999 0.2670437111759789 0 0 0
17 2 -1.37867666307885 3.2531027041337883 11.8584 0.2670437111759794 0 0 0
21 2 -1.378676663078848 3.2531027041337883 14.823 0.26704371117597836 0 0 0
170 1 3.193830927706845 3.253090245452726 8.893799999999999 4.853739490408812 0 0 0
172 1 3.170242525956257 3.253117998964492 10.3761 1.523409334964355 0 0 0
176 2 -1.612486987897907 3.25313187886047 8.893799999999999 2.8237636914459694 0 0 0
177 2 -1.600303604947965 1.9703397065186252 10.3761 4.835828914862141 0 0 0
178 2 -1.641741754050376 5.301151920518306 10.3761 1.5179139929481718 0 0 0
179 2 -1.600299771918064 4.53576065818779 10.3761 4.835893573074902 0 0 0
180 2 -1.641746669205884 1.2050577335163413 10.3761 1.5178799503239004 0 0 0
218 1 3.193830927706844 3.253090245452725 11.8584 4.853739490408812 0 0 0
220 1 3.170242525956257 3.253117998964492 13.340699999999998 1.5234093349643547 0 0 0
224 2 -1.612486987897907 3.2531318788604695 11.8584 2.823763691445969 0 0 0
225 2 -1.600303604947964 1.9703397065186243 13.3407 4.83582891486214 0 0 0
226 2 -1.641741754050376 5.301151920518307 13.3407 1.5179139929481718 0 0 0
227 2 -1.600299771918065 4.535760658187791 13.3407 4.835893573074901 0 0 0
228 2 -1.641746669205884 1.2050577335163413 13.3407 1.5178799503239007 0 0 0
266 1 3.193830927706844 3.2530902454527246 14.823 4.853739490408812 0 0 0
268 1 3.170242525956257 3.2531179989644916 16.3053 1.5234093349643543 0 0 0
272 2 -1.612486987897906 3.2531318788604704 14.823 2.8237636914459676 0 0 0
273 2 -1.600303604947965 1.970339706518624 16.3053 4.83582891486214 0 0 0
274 2 -1.641741754050376 5.301151920518307 16.3053 1.5179139929481702 0 0 0
275 2 -1.600299771918064 4.53576065818779 16.3053 4.835893573074903 0 0 0
276 2 -1.641746669205885 1.2050577335163417 16.3053 1.5178799503238989 0 0 0
181 1 3.144901934445512 6.506188379502211 8.893799999999999 1.9126007687703215 0 0 0
185 2 -1.660622034429349 6.506088708814359 8.8938 3.712037579808177 0 0 0
229 1 3.144901934445512 6.50618837950221 11.8584 1.9126007687703215 0 0 0
233 2 -1.660622034429348 6.506088708814359 11.8584 3.7120375798081775 0 0 0
277 1 3.144901934445512 6.506188379502211 14.822999999999999 1.912600768770321 0 0 0
281 2 -1.660622034429349 6.506088708814359 14.823 3.7120375798081775 0 0 0
14 2 -1.378602411993461 9.759233427103139 8.893799999999999 0.26665206944219333 0 0 0
18 2 -1.378602411993459 9.759233427103137 11.8584 0.2666520694421935 0 0 0
22 2 -1.37860241199346 9.759233427103137 14.823 0.2666520694421933 0 0 0
182 1 3.193777293563602 9.758963334050907 8.8938 4.854240561759974 0 0 0
183 1 3.197070646674328 6.506261418054494 10.3761 4.97256900412468 0 0 0
184 1 3.170225308496404 9.759009596738142 10.3761 1.5231510458137438 0 0 0
187 2 -1.598695453248064 6.5066358007647525 8.893799999999999 6.223834839825144 0 0 0
188 2 -1.61221547301853 9.758945273268438 8.893799999999999 2.823328973709926 0 0 0
189 2 -1.600300565306354 8.476546363736125 10.3761 4.83571370756549 0 0 0
190 2 -1.642023508391574 11.807143081040033 10.3761 1.5150789311448865 0 0 0
191 2 -1.600355325074237 11.041521286723457 10.3761 4.834773289662351 0 0 0
192 2 -1.641789032793489 7.711133760379039 10.3761 1.5177048483335969 0 0 0
230 1 3.193777293563601 9.75896333405091 11.8584 4.854240561759974 0 0 0
231 1 3.197070646674328 6.506261418054495 13.3407 4.97256900412468 0 0 0
232 1 3.170225308496405 9.759009596738142 13.3407 1.5231510458137438 0 0 0
235 2 -1.598695453248064 6.506635800764753 11.8584 6.223834839825144 0 0 0
236 2 -1.61221547301853 9.758945273268438 11.8584 2.823328973709926 0 0 0
237 2 -1.600300565306354 8.476546363736126 13.3407 4.83571370756549 0 0 0
238 2 -1.642023508391575 11.807143081040032 13.3407 1.5150789311448862 0 0 0
239 2 -1.600355325074237 11.041521286723457 13.3407 4.834773289662351 0 0 0
240 2 -1.641789032793489 7.71113376037904 13.3407 1.517704848333597 0 0 0
278 1 3.193777293563602 9.75896333405091 14.823 4.854240561759975 0 0 0
279 1 3.197070646674328 6.506261418054494 16.3053 4.97256900412468 0 0 0
280 1 3.170225308496405 9.75900959673814 16.3053 1.5231510458137434 0 0 0
283 2 -1.598695453248063 6.5066358007647525 14.823 6.223834839825144 0 0 0
284 2 -1.61221547301853 9.758945273268438 14.823 2.823328973709927 0 0 0
285 2 -1.600300565306353 8.476546363736125 16.3053 4.835713707565491 0 0 0
286 2 -1.642023508391575 11.807143081040032 16.3053 1.5150789311448858 0 0 0
287 2 -1.600355325074236 11.041521286723457 16.3053 4.83477328966235 0 0 0
288 2 -1.641789032793489 7.711133760379038 16.3053 1.5177048483335964 0 0 0
15 2 -1.378050422207127 16.265454751224176 8.893799999999999 0.26653101458233813 0 0 0
19 2 -1.378050422207127 16.265454751224176 11.8584 0.26653101458233897 0 0 0
23 2 -1.378050422207127 16.265454751224173 14.822999999999999 0.26653101458233813 0 0 0
193 1 3.144975454294725 13.01242818398426 8.893799999999999 1.9065055774583561 0 0 0
194 1 3.193349229368662 16.265427503402602 8.893799999999999 4.857883334615882 0 0 0
195 1 3.197820367129106 13.012641718512732 10.3761 4.964838420317773 0 0 0
196 1 3.170132430372923 16.26541216095517 10.3761 1.5234879316048218 0 0 0
197 2 -1.660655173423418 13.012430637967121 8.893799999999999 3.705733842189352 0 0 0
199 2 -1.604894973648982 13.013070703327214 8.893799999999999 6.210748617532306 0 0 0
200 2 -1.611365396138344 16.26542353406362 8.893799999999999 2.823412193376585 0 0 0
201 2 -1.600433756703174 14.983481022152032 10.3761 4.835799873988541 0 0 0
202 2 -1.642140757015854 18.313426845156794 10.3761 1.5138146543985225 0 0 0
203 2 -1.600468765855366 17.547450045761334 10.3761 4.835475169408413 0 0 0
204 2 -1.642071508463849 14.217504909616713 10.3761 1.5147736152283129 0 0 0
241 1 3.144975454294725 13.01242818398426 11.8584 1.9065055774583552 0 0 0
242 1 3.193349229368662 16.265427503402602 11.8584 4.857883334615882 0 0 0
243 1 3.197820367129106 13.012641718512732 13.3407 4.964838420317774 0 0 0
244 1 3.170132430372924 16.26541216095517 13.3407 1.5234879316048224 0 0 0
245 2 -1.660655173423418 13.012430637967121 11.8584 3.705733842189352 0 0 0
247 2 -1.604894973648983 13.013070703327216 11.8584 6.210748617532305 0 0 0
248 2 -1.611365396138344 16.26542353406362 11.8584 2.8234121933765843 0 0 0
249 2 -1.600433756703173 14.983481022152032 13.3407 4.83579987398854 0 0 0
250 2 -1.642140757015854 18.313426845156794 13.3407 1.5138146543985216 0 0 0
251 2 -1.600468765855365 17.547450045761334 13.3407 4.835475169408413 0 0 0
252 2 -1.642071508463848 14.21750490961671 13.3407 1.514773615228314 0 0 0
289 1 3.144975454294725 13.012428183984259 14.823 1.9065055774583548 0 0 0
290 1 3.193349229368663 16.265427503402602 14.823 4.857883334615881 0 0 0
291 1 3.197820367129106 13.012641718512732 16.3053 4.964838420317775 0 0 0
292 1 3.170132430372923 16.26541216095517 16.3053 1.5234879316048213 0 0 0
293 2 -1.660655173423418 13.012430637967123 14.823 3.705733842189352 0 0 0
295 2 -1.604894973648983 13.013070703327216 14.823 6.210748617532306 0 0 0
296 2 -1.611365396138344 16.265423534063622 14.822999999999999 2.8234121933765843 0 0 0
297 2 -1.600433756703175 14.983481022152032 16.3053 4.835799873988542 0 0 0
298 2 -1.642140757015855 18.313426845156794 16.3053 1.5138146543985216 0 0 0
299 2 -1.600468765855368 17.547450045761334 16.3053 4.835475169408412 0 0 0
300 2 -1.642071508463849 14.217504909616713 16.3053 1.514773615228313 0 0 0
207 1 3.197899230966704 19.51856339064662 10.3761 4.962501423127997 0 0 0
211 2 -1.606254764378774 19.51827268861157 8.893799999999999 6.207593718980333 0 0 0
255 1 3.197899230966704 19.518563390646623 13.3407 4.962501423127997 0 0 0
259 2 -1.606254764378774 19.518272688611574 11.8584 6.207593718980333 0 0 0
303 1 3.197899230966704 19.51856339064662 16.3053 4.962501423127998 0 0 0
307 2 -1.606254764378775 19.518272688611574 14.823 6.207593718980334 0 0 0
169 1 3.14489600153321 26.024760489617663 8.893799999999999 1.9124214340094672 -1 0 0
171 1 3.197065644165348 26.024531549891584 10.3761 4.972323181938236 -1 0 0
173 2 -1.660677551333853 26.02471372420694 8.893799999999999 3.7118700640144757 -1 0 0
175 2 -1.599401203746322 26.02410732211988 8.893799999999999 6.223571565902872 -1 0 0
217 1 3.14489600153321 26.024760489617663 11.8584 1.9124214340094672 -1 0 0
219 1 3.197065644165349 26.02453154989158 13.3407 4.972323181938236 -1 0 0
221 2 -1.660677551333853 26.024713724206936 11.8584 3.711870064014476 -1 0 0
223 2 -1.599401203746322 26.024107322119885 11.8584 6.22357156590287 -1 0 0
265 1 3.14489600153321 26.024760489617663 14.823 1.912421434009467 -1 0 0
267 1 3.19706564416535 26.02453154989158 16.3053 4.972323181938235 -1 0 0
269 2 -1.660677551333853 26.024713724206936 14.823 3.711870064014476 -1 0 0
271 2 -1.599401203746322 26.02410732211988 14.823 6.22357156590287 -1 0 0
16 2 -1.377965146799565 22.77180946263089 8.893799999999999 0.26700272508885703 0 0 0
20 2 -1.377965146799565 22.771809462630888 11.8584 0.26700272508885703 0 0 0
24 2 -1.377965146799564 22.771809462630888 14.823 0.26700272508885575 0 0 0
205 1 3.144969320667499 19.51862689938243 8.893799999999999 1.904527193448093 0 0 0
206 1 3.193301885229416 22.77210429076467 8.8938 4.8583508610087165 0 0 0
208 1 3.170129990897877 22.77206262753299 10.3761 1.5239264163813981 0 0 0
209 2 -1.660738622628988 19.518760718760564 8.893799999999999 3.7037576516774813 0 0 0
212 2 -1.611459012082127 22.772097639438524 8.893799999999999 2.824053913320593 0 0 0
213 2 -1.600467915023014 21.48991724017045 10.3761 4.8360570100202995 0 0 0
214 2 -1.641787770230975 24.819861046626155 10.3761 1.5175444373388558 0 0 0
215 2 -1.600380605822574 24.05418723402687 10.3761 4.837272300460664 0 0 0
216 2 -1.642085953095075 20.723922637552356 10.3761 1.513992247940933 0 0 0
253 1 3.1449693206675 19.518626899382433 11.8584 1.904527193448093 0 0 0
254 1 3.193301885229416 22.77210429076467 11.858399999999998 4.858350861008717 0 0 0
256 1 3.170129990897877 22.77206262753299 13.3407 1.523926416381398 0 0 0
257 2 -1.660738622628988 19.518760718760564 11.8584 3.7037576516774817 0 0 0
260 2 -1.611459012082126 22.772097639438524 11.8584 2.8240539133205926 0 0 0
261 2 -1.600467915023014 21.48991724017045 13.3407 4.8360570100202995 0 0 0
262 2 -1.641787770230975 24.819861046626155 13.3407 1.5175444373388547 0 0 0
263 2 -1.600380605822574 24.05418723402687 13.3407 4.837272300460663 0 0 0
264 2 -1.642085953095074 20.723922637552356 13.3407 1.5139922479409331 0 0 0
301 1 3.144969320667499 19.51862689938243 14.823 1.9045271934480936 0 0 0
302 1 3.193301885229417 22.77210429076467 14.822999999999999 4.8583508610087165 0 0 0
304 1 3.170129990897878 22.77206262753299 16.3053 1.5239264163813973 0 0 0
305 2 -1.660738622628988 19.518760718760568 14.823 3.7037576516774817 0 0 0
308 2 -1.611459012082126 22.772097639438524 14.823 2.8240539133205913 0 0 0
309 2 -1.600467915023013 21.48991724017045 16.3053 4.8360570100203 0 0 0
310 2 -1.641787770230975 24.819861046626155 16.3053 1.517544437338855 0 0 0
311 2 -1.600380605822573 24.05418723402687 16.3053 4.837272300460663 0 0 0
312 2 -1.642085953095074 20.723922637552356 16.3053 1.5139922479409322 0 0 0
30 2 -1.590121805700691 3.2531527366366095 8.333472331019074e-16 6.827095868623241 0 0 0
78 2 -1.590121805700691 3.25315273663661 2.9646 6.827095868623241 0 0 0
126 2 -1.59012180570069 3.25315273663661 5.9292 6.827095868623241 0 0 0
314 1 3.206328557779782 3.2534432587005666 1.2428191365928424e-15 11.345799993912642 0 0 0
315 1 3.203344523204238 0.0020641927785361156 1.482300000000001 11.392340633869395 0 0 0
316 1 3.203704629806792 3.2534231314873274 1.4823000000000004 8.119628366128216 0 0 0
319 2 -1.595653659230271 0.008311722007174687 1.7148887938123663e-15 12.684254844031729 0 0 0
320 2 -1.589237762156264 3.2534334395837003 1.1957439605834084e-15 9.396491382298954 0 0 0
321 2 -1.584320797666921 1.9692830855862289 1.4823000000000006 11.370514369580604 0 0 0
322 2 -1.583584472215273 5.222324882448699 1.4823000000000006 8.147170337752344 0 0 0
323 2 -1.584521016864096 4.537580747764637 1.4823 11.375378189500582 0 0 0
324 2 -1.583785873825545 1.2838760338013706 1.4823000000000008 8.146861375890694 0 0 0
362 1 3.206328557779782 3.2534432587005666 2.9646000000000003 11.345799993912642 0 0 0
363 1 3.203344523204237 0.0020641927785374427 4.4469 11.392340633869397 0 0 0
364 1 3.203704629806792 3.253423131487328 4.4469 8.119628366128218 0 0 0
367 2 -1.595653659230269 0.008311722007172258 2.9646 12.684254844031727 0 0 0
368 2 -1.589237762156263 3.2534334395837 2.9646 9.396491382298956 0 0 0
369 2 -1.584320797666921 1.969283085586229 4.446899999999999 11.370514369580604 0 0 0
370 2 -1.583584472215273 5.222324882448699 4.446899999999999 8.147170337752346 0 0 0
371 2 -1.584521016864097 4.537580747764638 4.4469 11.37537818950058 0 0 0
372 2 -1.583785873825545 1.2838760338013706 4.446899999999999 8.146861375890694 0 0 0
410 1 3.206328557779782 3.2534432587005657 5.9292 11.345799993912642 0 0 0
411 1 3.203344523204238 0.002064192778535533 7.411499999999999 11.392340633869397 0 0 0
412 1 3.203704629806792 3.2534231314873283 7.411499999999999 8.11962836612822 0 0 0
415 2 -1.595653659230269 0.008311722007173457 5.9292 12.684254844031729 0 0 0
416 2 -1.589237762156264 3.2534334395837 5.9292 9.396491382298956 0 0 0
417 2 -1.584320797666921 1.9692830855862289 7.411499999999999 11.370514369580604 0 0 0
418 2 -1.583584472215273 5.2223248824487 7.411499999999999 8.147170337752346 0 0 0
419 2 -1.584521016864096 4.537580747764637 7.411499999999999 11.37537818950058 0 0 0
420 2 -1.583785873825545 1.2838760338013708 7.411499999999999 8.146861375890696 0 0 0
327 1 3.203105263818145 6.5058805689607775 1.4823000000000004 11.398940902904755 0 0 0
331 2 -1.592580147507678 6.502490987840722 9.43774482305706e-16 12.693226006605606 0 0 0
375 1 3.203105263818144 6.505880568960777 4.4468999999999985 11.398940902904753 0 0 0
379 2 -1.59258014750768 6.50249098784072 2.964600000000001 12.693226006605604 0 0 0
423 1 3.203105263818145 6.505880568960776 7.411499999999999 11.398940902904753 0 0 0
427 2 -1.592580147507682 6.502490987840721 5.9292 12.693226006605604 0 0 0
42 2 -1.589797620042545 9.757408584852207 1.5031747943471084e-15 6.828577047199239 0 0 0
90 2 -1.589797620042545 9.757408584852207 2.9645999999999995 6.828577047199238 0 0 0
138 2 -1.589797620042545 9.757408584852207 5.9292 6.828577047199238 0 0 0
325 1 3.20671165596958 6.506622589591063 9.068248584121927e-16 8.173707466079112 0 0 0
326 1 3.202400193795055 9.757853910243748 6.559867749949641e-16 11.359239026887856 0 0 0
328 1 3.203141893714079 9.758913194919076 1.4823000000000004 8.121371287784227 0 0 0
329 2 -1.591661240895019 6.511890966261465 9.147602215256515e-16 10.123756866883841 0 0 0
332 2 -1.590418211177448 9.763247398487064 1.278714542843712e-15 9.404349356631721 0 0 0
333 2 -1.59116808039625 8.479260506287243 1.4823000000000013 11.400124596541103 0 0 0
334 2 -1.584322391715501 11.726511447681983 1.4823000000000004 8.130823658511503 0 0 0
335 2 -1.59000640791446 11.04761501140727 1.4823000000000006 11.38026303553568 0 0 0
336 2 -1.58404986921458 7.791815703609723 1.4823000000000002 8.14933978137125 0 0 0
373 1 3.206711655969579 6.506622589591064 2.9646 8.173707466079113 0 0 0
374 1 3.202400193795054 9.75785391024375 2.964599999999998 11.359239026887856 0 0 0
376 1 3.203141893714078 9.758913194919076 4.446899999999999 8.121371287784225 0 0 0
377 2 -1.59166124089502 6.511890966261465 2.964599999999999 10.123756866883841 0 0 0
380 2 -1.590418211177447 9.763247398487064 2.9646 9.404349356631721 0 0 0
381 2 -1.591168080396256 8.479260506287241 4.4469 11.4001245965411 0 0 0
382 2 -1.584322391715501 11.726511447681983 4.446899999999999 8.130823658511503 0 0 0
383 2 -1.59000640791446 11.047615011407268 4.446900000000001 11.380263035535679 0 0 0
384 2 -1.58404986921458 7.791815703609724 4.446899999999999 8.149339781371252 0 0 0
421 1 3.206711655969579 6.506622589591064 5.9292 8.173707466079112 0 0 0
422 1 3.20240019379505 9.757853910243748 5.929199999999999 11.359239026887854 0 0 0
424 1 3.203141893714079 9.758913194919076 7.4115 8.121371287784227 0 0 0
425 2 -1.591661240895019 6.511890966261466 5.9292 10.123756866883841 0 0 0
428 2 -1.590418211177447 9.763247398487064 5.9292 9.404349356631721 0 0 0
429 2 -1.591168080396256 8.479260506287243 7.4115 11.4001245965411 0 0 0
430 2 -1.5843223917155 11.726511447681983 7.411499999999999 8.1308236585115 0 0 0
431 2 -1.590006407914459 11.047615011407268 7.411499999999999 11.380263035535679 0 0 0
432 2 -1.58404986921458 7.791815703609724 7.411499999999999 8.149339781371252 0 0 0
343 2 -1.660662927080309 13.008829037437728 1.0936080241147876e-15 12.576382816651712 0 0 0
391 2 -1.66066292708031 13.008829037437724 2.9646000000000003 12.576382816651712 0 0 0
439 2 -1.660662927080312 13.008829037437726 5.9292 12.576382816651712 0 0 0
54 2 -1.588278013573925 16.265024179727867 1.3504288623035517e-15 6.836638729896839 0 0 0
102 2 -1.588278013573925 16.265024179727867 2.9646 6.83663872989684 0 0 0
150 2 -1.588278013573924 16.265024179727867 5.929200000000001 6.83663872989684 0 0 0
337 1 3.209558055915115 13.013078563161605 9.55619053229519e-16 8.140359021439815 0 0 0
338 1 3.194187366203108 16.265348321868608 1.529295222875256e-15 11.405219297707072 0 0 0
339 1 3.199137241658292 13.012443129865755 1.4823000000000002 11.319875024941878 0 0 0
340 1 3.201489342101219 16.265105263488064 1.4823000000000008 8.132814039174509 0 0 0
341 2 -1.601536948517862 13.023493793348335 8.85492612046653e-16 10.066925974177618 0 0 0
344 2 -1.58865519863866 16.26557317530393 7.285848519304099e-16 9.428127067679391 0 0 0
345 2 -1.599727728285861 14.984082863985883 1.4822999999999997 11.43466123184359 0 0 0
346 2 -1.584912029687797 18.230061383770614 1.4823000000000006 8.13134216169645 0 0 0
347 2 -1.59881040944884 17.547082553633267 1.4823000000000002 11.427387361073759 0 0 0