LAMMPS data file via write_data, version 30 Mar 2026, timestep = 67, units = metal

648 atoms
2 atom types

0 19.5186 xlo xhi
0 17.787599999999998 ylo yhi
0.27104164749784426 19.247558352502164 zlo zhi

Masses

1 47.867
2 15.999

Atoms # charge

1 2 -1.389027575204064 3.2530999999999963 6.660904070521665e-16 0.27299350749785023 0 0 0
4 2 -1.389027575204069 3.2530999999999963 2.9646 0.27299350749785245 0 0 0
7 2 -1.389027575204071 3.253099999999996 5.929199999999999 0.2729935074978523 0 0 0
19 1 3.143040359738669 0 7.7559377096770845e-16 1.9068039786744824 0 0 0
20 1 3.19243432456788 3.253100000000012 0 4.860457992827162 0 0 0
21 1 3.19550034468068 7.785885679022087e-16 1.4822999999999986 4.966484688714164 0 0 0
22 1 3.169458062170224 3.2531000000000048 1.4823000000000002 1.5278567186468588 0 0 0
25 2 -1.599832009194099 0 1.277587572626554e-15 6.217534095149566 0 0 0
26 2 -1.613629260828214 3.253099999999994 1.6670811661334782e-15 2.830077834376824 0 0 0
27 2 -1.601982448425227 1.970198456678451 1.4823000000000015 4.838016278660479 0 0 0
28 2 -1.643359771061923 5.301751522345742 1.4823000000000008 1.5142300479171942 0 0 0
29 2 -1.601982448425239 4.536001543321534 1.4823000000000022 4.8380162786604854 0 0 0
30 2 -1.643359771061914 1.2044484776542503 1.4823000000000015 1.5142300479171997 0 0 0
55 1 3.14304035973867 0 2.964600000000001 1.906803978674486 0 0 0
56 1 3.192434324567882 3.2531000000000114 2.9645999999999977 4.860457992827163 0 0 0
57 1 3.195500344680682 1.0222941810073737e-15 4.4468999999999985 4.9664846887141625 0 0 0
58 1 3.169458062170225 3.2531000000000057 4.4469 1.5278567186468555 0 0 0
61 2 -1.599832009194096 0 2.9646 6.217534095149564 0 0 0
62 2 -1.613629260828212 3.253099999999993 2.9646000000000017 2.830077834376825 0 0 0
63 2 -1.601982448425225 1.9701984566784507 4.4469 4.838016278660479 0 0 0
64 2 -1.643359771061921 5.301751522345742 4.4469 1.5142300479171953 0 0 0
65 2 -1.601982448425236 4.536001543321535 4.4469 4.8380162786604854 0 0 0
66 2 -1.643359771061913 1.2044484776542483 4.446900000000001 1.5142300479172013 0 0 0
91 1 3.14304035973867 0 5.929199999999999 1.906803978674488 0 0 0
92 1 3.192434324567884 3.253100000000012 5.929199999999999 4.860457992827165 0 0 0
93 1 3.195500344680683 0 7.411499999999999 4.9664846887141625 0 0 0
94 1 3.169458062170225 3.253100000000006 7.411499999999999 1.5278567186468555 0 0 0
95 2 -1.662230004331535 0 5.9292 3.705703308352414 0 0 0
97 2 -1.599832009194095 0 5.9292 6.2175340951495635 0 0 0
98 2 -1.61362926082821 3.2530999999999928 5.9292 2.830077834376826 0 0 0
99 2 -1.601982448425224 1.9701984566784496 7.411499999999999 4.838016278660479 0 0 0
100 2 -1.643359771061923 5.30175152234574 7.411499999999999 1.5142300479171948 0 0 0
101 2 -1.601982448425237 4.536001543321534 7.411499999999998 4.838016278660486 0 0 0
102 2 -1.643359771061911 1.2044484776542481 7.411499999999999 1.5142300479172006 0 0 0
31 1 3.143040359738661 6.506199999999999 5.543130350773479e-16 1.9068039786744626 0 0 0
35 2 -1.662230004331544 6.506199999999998 3.3715624229615273e-15 3.7057033083524127 0 0 0
107 2 -1.662230004331542 6.506199999999998 5.929199999999999 3.7057033083524136 0 0 0
109 2 -1.599832009194098 6.506199999999998 5.9292 6.217534095149585 0 0 0
131 2 -1.662230004331535 0 8.893799999999997 3.705703308352414 0 0 0
134 2 -1.613629260828211 3.253099999999991 8.893799999999997 2.830077834376826 0 0 0
143 2 -1.662230004331543 6.506199999999997 8.893799999999997 3.705703308352414 0 0 0
2 2 -1.389027575204047 9.759300000000001 5.56415594812384e-16 0.2729935074978469 0 0 0
5 2 -1.389027575204047 9.759300000000001 2.9645999999999995 0.2729935074978475 0 0 0
8 2 -1.389027575204052 9.7593 5.9292 0.2729935074978465 0 0 0
32 1 3.192434324567881 9.759299999999993 0 4.860457992827159 0 0 0
33 1 3.195500344680672 6.5062000000000015 1.482299999999999 4.966484688714168 0 0 0
34 1 3.169458062170222 9.759299999999994 1.482300000000001 1.5278567186468688 0 0 0
37 2 -1.599832009194103 6.5062 2.1765145897302682e-15 6.2175340951495865 0 0 0
38 2 -1.613629260828221 9.759300000000005 2.3358733856342726e-15 2.8300778343768203 0 0 0
39 2 -1.60198244842524 8.476398456678465 1.4823000000000024 4.838016278660488 0 0 0
40 2 -1.643359771061916 11.807951522345745 1.4823000000000006 1.5142300479171928 0 0 0
41 2 -1.601982448425231 11.042201543321546 1.4823000000000017 4.838016278660484 0 0 0
42 2 -1.643359771061923 7.710648477654257 1.4823000000000008 1.5142300479171908 0 0 0
67 1 3.143040359738662 6.5062 2.9646 1.9068039786744657 0 0 0
68 1 3.192434324567881 9.759299999999993 2.964599999999999 4.860457992827159 0 0 0
69 1 3.195500344680673 6.506200000000002 4.4469 4.966484688714166 0 0 0
70 1 3.169458062170222 9.759299999999994 4.446900000000001 1.527856718646869 0 0 0
71 2 -1.662230004331543 6.5062 2.9646000000000012 3.705703308352413 0 0 0
73 2 -1.599832009194099 6.5062 2.9646000000000012 6.217534095149583 0 0 0
74 2 -1.61362926082822 9.759300000000005 2.9646000000000003 2.8300778343768216 0 0 0
75 2 -1.601982448425238 8.476398456678464 4.4469 4.838016278660489 0 0 0
76 2 -1.643359771061917 11.807951522345745 4.446899999999998 1.5142300479171937 0 0 0
77 2 -1.601982448425231 11.042201543321545 4.4468999999999985 4.838016278660485 0 0 0
78 2 -1.643359771061922 7.710648477654257 4.446899999999999 1.5142300479171913 0 0 0
103 1 3.143040359738661 6.506200000000001 5.929200000000002 1.9068039786744655 0 0 0
104 1 3.19243432456788 9.759299999999994 5.929200000000002 4.860457992827158 0 0 0
105 1 3.195500344680673 6.506200000000002 7.411500000000001 4.966484688714167 0 0 0
106 1 3.169458062170222 9.759299999999998 7.4115 1.5278567186468714 0 0 0
110 2 -1.613629260828223 9.759300000000005 5.929199999999997 2.8300778343768216 0 0 0
111 2 -1.601982448425241 8.476398456678464 7.411499999999997 4.83801627866049 0 0 0
112 2 -1.643359771061919 11.807951522345746 7.411499999999998 1.5142300479171922 0 0 0
113 2 -1.601982448425235 11.042201543321546 7.4114999999999975 4.838016278660486 0 0 0
114 2 -1.643359771061924 7.710648477654257 7.4114999999999975 1.5142300479171904 0 0 0
45 1 3.195500344680679 13.012399999999998 1.482299999999999 4.966484688714164 0 0 0
81 1 3.195500344680678 13.012399999999998 4.446900000000001 4.966484688714163 0 0 0
115 1 3.143040359738666 13.012399999999998 5.929200000000001 1.9068039786744744 0 0 0
117 1 3.195500344680676 13.012399999999996 7.411500000000002 4.966484688714166 0 0 0
146 2 -1.613629260828228 9.759300000000001 8.893799999999997 2.8300778343768203 0 0 0
23 2 -1.662230004331537 19.518599999999996 2.2811063271664925e-15 3.7057033083524127 -1 0 0
59 2 -1.662230004331536 19.518599999999996 2.964600000000002 3.705703308352414 -1 0 0
3 2 -1.389027575204083 16.2655 1.2004901645572245e-15 0.27299350749785584 0 0 0
6 2 -1.389027575204085 16.2655 2.9645999999999995 0.27299350749785684 0 0 0
9 2 -1.389027575204085 16.265500000000003 5.9292 0.27299350749785667 0 0 0
43 1 3.143040359738666 13.0124 3.183063185210203e-16 1.9068039786744766 0 0 0
44 1 3.192434324567883 16.265499999999996 0 4.86045799282717 0 0 0
46 1 3.169458062170228 16.265499999999996 1.4823 1.5278567186468457 0 0 0
47 2 -1.662230004331539 13.012400000000001 2.0868665035638434e-15 3.7057033083524136 0 0 0
49 2 -1.599832009194099 13.0124 1.3242809553781824e-15 6.217534095149575 0 0 0
50 2 -1.613629260828202 16.265500000000003 1.1721628370243666e-15 2.8300778343768274 0 0 0
51 2 -1.60198244842523 14.982598456678458 1.4823000000000004 4.838016278660478 0 0 0
52 2 -1.643359771061913 18.314151522345746 1.4823000000000017 1.514230047917203 0 0 0
53 2 -1.601982448425227 17.548401543321543 1.4823000000000017 4.838016278660476 0 0 0
54 2 -1.643359771061917 14.216848477654255 1.4822999999999997 1.5142300479172022 0 0 0
79 1 3.143040359738667 13.0124 2.9646000000000003 1.906803978674478 0 0 0
80 1 3.192434324567883 16.265499999999992 2.9645999999999986 4.860457992827171 0 0 0
82 1 3.169458062170228 16.265499999999996 4.4469 1.527856718646844 0 0 0
83 2 -1.662230004331538 13.012400000000005 2.964599999999999 3.705703308352414 0 0 0
85 2 -1.599832009194098 13.0124 2.9646000000000012 6.217534095149573 0 0 0
86 2 -1.613629260828199 16.2655 2.9646000000000003 2.830077834376829 0 0 0
87 2 -1.601982448425231 14.98259845667846 4.4468999999999985 4.83801627866048 0 0 0
88 2 -1.643359771061913 18.314151522345746 4.446899999999999 1.5142300479172048 0 0 0
89 2 -1.601982448425222 17.548401543321546 4.4469 4.838016278660476 0 0 0
90 2 -1.643359771061918 14.216848477654253 4.4469 1.5142300479172013 0 0 0
116 1 3.192434324567884 16.26549999999999 5.9292 4.860457992827171 0 0 0
118 1 3.169458062170226 16.265499999999996 7.4115 1.527856718646845 0 0 0
119 2 -1.66223000433154 13.012400000000003 5.929199999999997 3.705703308352414 0 0 0
121 2 -1.599832009194097 13.0124 5.929199999999999 6.217534095149577 0 0 0
122 2 -1.6136292608282 16.265500000000007 5.929199999999998 2.8300778343768296 0 0 0
123 2 -1.601982448425233 14.982598456678462 7.411499999999998 4.83801627866048 0 0 0
124 2 -1.643359771061911 18.314151522345746 7.411499999999999 1.5142300479172044 0 0 0
125 2 -1.601982448425221 17.548401543321546 7.411499999999998 4.838016278660476 0 0 0
126 2 -1.643359771061919 14.216848477654255 7.411499999999999 1.5142300479172008 0 0 0
10 2 -1.389027575204068 3.2530999999999946 8.893799999999999 0.2729935074978521 0 0 0
13 2 -1.389027575204067 3.253099999999995 11.8584 0.2729935074978515 0 0 0
16 2 -1.389027575204064 3.2530999999999954 14.822999999999999 0.27299350749784984 0 0 0
127 1 3.14304035973867 0 8.8938 1.9068039786744875 0 0 0
128 1 3.192434324567884 3.2531000000000136 8.893799999999999 4.860457992827162 0 0 0
129 1 3.195500344680682 1.473076475194658e-15 10.376100000000001 4.9664846887141625 0 0 0
130 1 3.169458062170225 3.2531000000000074 10.376100000000001 1.5278567186468577 0 0 0
133 2 -1.599832009194094 0 8.8938 6.2175340951495635 0 0 0
135 2 -1.601982448425224 1.97019845667845 10.376099999999997 4.838016278660479 0 0 0
136 2 -1.643359771061923 5.30175152234574 10.3761 1.5142300479171942 0 0 0
137 2 -1.601982448425238 4.536001543321532 10.376099999999997 4.838016278660488 0 0 0
138 2 -1.643359771061912 1.2044484776542486 10.3761 1.5142300479172013 0 0 0
163 1 3.14304035973867 0 11.858400000000001 1.9068039786744861 0 0 0
164 1 3.192434324567882 3.253100000000014 11.858400000000001 4.86045799282716 0 0 0
165 1 3.195500344680681 2.275814131632503e-16 13.340700000000002 4.966484688714163 0 0 0
166 1 3.169458062170225 3.253100000000006 13.3407 1.5278567186468603 0 0 0
167 2 -1.662230004331536 0 11.858399999999998 3.7057033083524145 0 0 0
169 2 -1.599832009194094 1.7133674633365669e-16 11.8584 6.217534095149564 0 0 0
170 2 -1.613629260828213 3.2530999999999928 11.858399999999998 2.830077834376825 0 0 0
171 2 -1.601982448425226 1.9701984566784503 13.340699999999998 4.838016278660479 0 0 0
172 2 -1.643359771061923 5.301751522345739 13.3407 1.5142300479171935 0 0 0
173 2 -1.60198244842524 4.536001543321532 13.340699999999998 4.838016278660488 0 0 0
174 2 -1.643359771061913 1.2044484776542483 13.340699999999998 1.5142300479171995 0 0 0
199 1 3.143040359738669 0 14.823 1.906803978674483 0 0 0
200 1 3.19243432456788 3.2531000000000123 14.823000000000002 4.860457992827161 0 0 0
201 1 3.19550034468068 9.344260147471117e-16 16.3053 4.966484688714165 0 0 0
202 1 3.169458062170224 3.253100000000005 16.3053 1.5278567186468612 0 0 0
205 2 -1.599832009194097 0 14.822999999999999 6.217534095149566 0 0 0
206 2 -1.613629260828215 3.253099999999992 14.822999999999999 2.8300778343768243 0 0 0
207 2 -1.601982448425229 1.9701984566784507 16.3053 4.838016278660479 0 0 0
208 2 -1.643359771061924 5.301751522345741 16.3053 1.5142300479171922 0 0 0
209 2 -1.601982448425241 4.536001543321533 16.3053 4.838016278660488 0 0 0
210 2 -1.643359771061914 1.2044484776542503 16.3053 1.5142300479171982 0 0 0
179 2 -1.662230004331543 6.506199999999998 11.858399999999998 3.705703308352414 0 0 0
181 2 -1.599832009194099 6.506199999999998 11.858400000000001 6.217534095149588 0 0 0
215 2 -1.662230004331544 6.506199999999998 14.822999999999999 3.705703308352413 0 0 0
11 2 -1.389027575204049 9.759300000000001 8.893799999999999 0.27299350749784523 0 0 0
14 2 -1.389027575204044 9.759300000000001 11.8584 0.2729935074978443 0 0 0
17 2 -1.389027575204044 9.759300000000001 14.822999999999999 0.2729935074978452 0 0 0
139 1 3.143040359738659 6.5062000000000015 8.893799999999999 1.906803978674463 0 0 0
140 1 3.192434324567878 9.759299999999996 8.893799999999999 4.860457992827154 0 0 0
141 1 3.195500344680672 6.506200000000003 10.376100000000001 4.966484688714168 0 0 0
142 1 3.169458062170221 9.759299999999996 10.376099999999997 1.527856718646874 0 0 0
145 2 -1.5998320091941 6.5062 8.8938 6.217534095149587 0 0 0
147 2 -1.601982448425242 8.476398456678464 10.376099999999997 4.8380162786604926 0 0 0
148 2 -1.64335977106192 11.807951522345745 10.3761 1.514230047917191 0 0 0
149 2 -1.601982448425238 11.042201543321545 10.376099999999997 4.838016278660487 0 0 0
150 2 -1.643359771061925 7.710648477654257 10.3761 1.5142300479171897 0 0 0
175 1 3.143040359738658 6.5062 11.8584 1.9068039786744613 0 0 0
176 1 3.192434324567878 9.759299999999994 11.858399999999998 4.860457992827154 0 0 0
177 1 3.195500344680672 6.5062000000000015 13.3407 4.966484688714169 0 0 0
178 1 3.169458062170221 9.759299999999994 13.340699999999998 1.5278567186468737 0 0 0
182 2 -1.613629260828227 9.759300000000005 11.8584 2.8300778343768194 0 0 0
183 2 -1.601982448425242 8.476398456678464 13.340699999999998 4.838016278660489 0 0 0
184 2 -1.643359771061919 11.807951522345745 13.3407 1.5142300479171915 0 0 0
185 2 -1.601982448425235 11.042201543321545 13.3407 4.838016278660486 0 0 0
186 2 -1.643359771061925 7.710648477654258 13.3407 1.5142300479171884 0 0 0
211 1 3.143040359738658 6.506200000000001 14.823 1.9068039786744608 0 0 0
212 1 3.192434324567878 9.759299999999993 14.822999999999999 4.860457992827158 0 0 0
213 1 3.195500344680672 6.506200000000002 16.3053 4.966484688714169 0 0 0
214 1 3.169458062170222 9.759299999999994 16.3053 1.5278567186468723 0 0 0
217 2 -1.599832009194102 6.5062 14.822999999999999 6.217534095149587 0 0 0
218 2 -1.613629260828224 9.759300000000001 14.823 2.8300778343768194 0 0 0
219 2 -1.601982448425242 8.476398456678465 16.305300000000003 4.838016278660489 0 0 0
220 2 -1.643359771061917 11.807951522345743 16.305300000000003 1.5142300479171928 0 0 0
221 2 -1.601982448425233 11.042201543321545 16.3053 4.838016278660485 0 0 0
222 2 -1.643359771061924 7.710648477654258 16.305300000000003 1.5142300479171893 0 0 0
151 1 3.143040359738663 13.012399999999998 8.8938 1.9068039786744717 0 0 0
153 1 3.195500344680676 13.012399999999994 10.3761 4.966484688714167 0 0 0
187 1 3.143040359738664 13.012399999999998 11.858399999999998 1.9068039786744722 0 0 0
189 1 3.195500344680676 13.012399999999996 13.340699999999998 4.966484688714166 0 0 0
223 1 3.143040359738665 13.012399999999998 14.822999999999999 1.906803978674474 0 0 0
225 1 3.195500344680678 13.012399999999994 16.305299999999995 4.966484688714166 0 0 0
203 2 -1.662230004331536 19.518599999999996 14.822999999999999 3.705703308352413 -1 0 0
12 2 -1.389027575204082 16.265500000000003 8.893799999999999 0.2729935074978557 0 0 0
15 2 -1.389027575204083 16.265500000000003 11.8584 0.27299350749785567 0 0 0
18 2 -1.389027575204084 16.2655 14.823 0.2729935074978555 0 0 0
152 1 3.192434324567882 16.26549999999999 8.893799999999999 4.860457992827169 0 0 0
154 1 3.169458062170228 16.265499999999992 10.376100000000001 1.5278567186468464 0 0 0
155 2 -1.662230004331541 13.012400000000003 8.893799999999999 3.705703308352414 0 0 0
157 2 -1.599832009194099 13.0124 8.893799999999999 6.217534095149579 0 0 0
158 2 -1.613629260828202 16.265500000000007 8.893799999999999 2.830077834376829 0 0 0
159 2 -1.601982448425233 14.982598456678462 10.3761 4.838016278660483 0 0 0
160 2 -1.643359771061911 18.314151522345746 10.3761 1.514230047917203 0 0 0
161 2 -1.601982448425222 17.54840154332155 10.3761 4.838016278660477 0 0 0
162 2 -1.64335977106192 14.216848477654256 10.3761 1.5142300479172004 0 0 0
188 1 3.192434324567883 16.26549999999999 11.8584 4.860457992827169 0 0 0
190 1 3.169458062170228 16.265499999999992 13.3407 1.5278567186468475 0 0 0
191 2 -1.66223000433154 13.012400000000005 11.858400000000001 3.705703308352414 0 0 0
193 2 -1.599832009194099 13.012400000000001 11.8584 6.217534095149578 0 0 0
194 2 -1.613629260828203 16.265500000000003 11.858399999999998 2.830077834376829 0 0 0
195 2 -1.601982448425231 14.982598456678462 13.3407 4.838016278660482 0 0 0
196 2 -1.643359771061912 18.314151522345746 13.340699999999998 1.5142300479172042 0 0 0
197 2 -1.601982448425223 17.548401543321546 13.340699999999998 4.8380162786604775 0 0 0
198 2 -1.643359771061919 14.216848477654255 13.3407 1.5142300479172006 0 0 0
224 1 3.192434324567884 16.265499999999992 14.823 4.86045799282717 0 0 0
226 1 3.169458062170228 16.265499999999996 16.3053 1.5278567186468468 0 0 0
227 2 -1.66223000433154 13.012400000000003 14.823000000000002 3.7057033083524127 0 0 0
229 2 -1.599832009194101 13.012400000000001 14.822999999999999 6.217534095149575 0 0 0
230 2 -1.613629260828202 16.265500000000003 14.822999999999999 2.830077834376828 0 0 0
231 2 -1.601982448425231 14.98259845667846 16.3053 4.838016278660478 0 0 0
232 2 -1.643359771061913 18.314151522345746 16.3053 1.5142300479172022 0 0 0
233 2 -1.601982448425228 17.548401543321543 16.305299999999995 4.838016278660478 0 0 0
234 2 -1.643359771061919 14.216848477654253 16.3053 1.5142300479172006 0 0 0
24 2 -1.591625928085621 3.2531000000000008 1.560986391740909e-15 6.83198406400522 0 0 0
60 2 -1.59162592808562 3.2531000000000008 2.964600000000001 6.831984064005217 0 0 0
96 2 -1.591625928085619 3.2531000000000003 5.9292 6.8319840640052165 0 0 0
235 1 3.205475833591658 0 2.7873095513562976e-16 8.167716743627292 0 0 0
236 1 3.205475833591667 3.253099999999998 1.4868969892456004e-15 11.350883256372706 0 0 0
237 1 3.202454938249742 1.6763558537814423e-16 1.4823000000000006 11.393162304634235 0 0 0
238 1 3.202454938249736 3.253099999999994 1.4823000000000015 8.12543769536576 0 0 0
239 2 -1.591324866022653 9.300461234787994e-16 0 10.117230157524476 0 0 0
241 2 -1.591625928085607 7.333062297809366e-16 2.14517252694975e-15 12.68661593599477 0 0 0
242 2 -1.591324866022652 3.2531000000000034 7.594053962358754e-16 9.401369842475537 0 0 0
243 2 -1.585004890179608 1.9686270556220318 1.4823 11.375220938548088 0 0 0
244 2 -1.585004890179609 5.221727055622032 1.4823000000000013 8.143379061451915 0 0 0
245 2 -1.585004890179606 4.537572944377968 1.4823000000000002 11.375220938548088 0 0 0
246 2 -1.585004890179617 1.2844729443779717 1.4823000000000006 8.143379061451913 0 0 0
272 1 3.205475833591665 3.2530999999999985 2.9646000000000017 11.350883256372704 0 0 0
273 1 3.202454938249741 1.1634906258966363e-16 4.446900000000004 11.393162304634231 0 0 0
274 1 3.202454938249736 3.2530999999999923 4.446900000000001 8.125437695365763 0 0 0
275 2 -1.591324866022656 1.0090398915406584e-16 2.9645999999999995 10.117230157524476 0 0 0
277 2 -1.591625928085606 0 2.9646000000000017 12.686615935994773 0 0 0
278 2 -1.591324866022655 3.2531000000000043 2.9646 9.401369842475537 0 0 0
279 2 -1.58500489017961 1.968627055622032 4.446899999999999 11.375220938548091 0 0 0
280 2 -1.58500489017961 5.221727055622032 4.446900000000001 8.143379061451911 0 0 0
281 2 -1.585004890179609 4.537572944377968 4.4468999999999985 11.375220938548088 0 0 0
282 2 -1.585004890179619 1.2844729443779714 4.4468999999999985 8.143379061451911 0 0 0
307 1 3.205475833591656 0 5.929200000000002 8.167716743627293 0 0 0
308 1 3.205475833591662 3.2530999999999985 5.929200000000002 11.350883256372704 0 0 0
309 1 3.20245493824974 1.5479097206123584e-15 7.4115 11.393162304634231 0 0 0
310 1 3.202454938249736 3.2530999999999914 7.411499999999999 8.125437695365763 0 0 0
311 2 -1.59132486602266 8.110705729111904e-16 5.929199999999999 10.117230157524475 0 0 0
313 2 -1.59162592808561 2.595377685870271e-16 5.929199999999999 12.686615935994777 0 0 0
314 2 -1.591324866022657 3.253100000000005 5.9292 9.401369842475534 0 0 0
315 2 -1.585004890179615 1.9686270556220327 7.411499999999999 11.37522093854809 0 0 0
316 2 -1.585004890179609 5.221727055622033 7.411500000000001 8.143379061451911 0 0 0
317 2 -1.58500489017961 4.53757294437797 7.4115 11.375220938548088 0 0 0
318 2 -1.585004890179622 1.284472944377972 7.4115 8.143379061451911 0 0 0
249 1 3.202454938249741 6.506199999999999 1.4823000000000004 11.393162304634236 0 0 0
283 1 3.205475833591663 6.506199999999998 2.9645999999999995 8.167716743627292 0 0 0
285 1 3.202454938249741 6.506199999999998 4.446900000000001 11.393162304634236 0 0 0
319 1 3.205475833591664 6.506199999999998 5.929199999999999 8.167716743627293 0 0 0
321 1 3.20245493824974 6.506199999999999 7.411499999999999 11.393162304634238 0 0 0
343 1 3.205475833591656 0 8.893799999999997 8.167716743627295 0 0 0
355 1 3.205475833591664 6.506199999999998 8.893799999999997 8.16771674362729 0 0 0
36 2 -1.591625928085619 9.759299999999998 2.076142867475651e-15 6.831984064005222 0 0 0
72 2 -1.591625928085616 9.759299999999998 2.9646000000000012 6.831984064005223 0 0 0
108 2 -1.591625928085616 9.7593 5.929199999999999 6.831984064005224 0 0 0
247 1 3.205475833591664 6.5062 1.1964430317871169e-15 8.16771674362729 0 0 0
248 1 3.205475833591665 9.759300000000001 6.686691649403852e-16 11.350883256372704 0 0 0
250 1 3.202454938249737 9.759300000000005 1.4822999999999993 8.125437695365758 0 0 0
251 2 -1.591324866022649 6.5062 7.232417287711316e-16 10.117230157524471 0 0 0
253 2 -1.591625928085608 6.5062 2.3278462528360986e-15 12.68661593599477 0 0 0
254 2 -1.591324866022653 9.759299999999996 1.438435305064776e-15 9.401369842475535 0 0 0
255 2 -1.585004890179606 8.474827055622033 1.4823000000000004 11.375220938548088 0 0 0
256 2 -1.585004890179614 11.727927055622029 1.4823000000000022 8.143379061451913 0 0 0
257 2 -1.585004890179607 11.043772944377968 1.4823000000000015 11.37522093854809 0 0 0
258 2 -1.585004890179609 7.7906729443779685 1.482300000000002 8.143379061451915 0 0 0
284 1 3.205475833591665 9.759300000000001 2.964600000000001 11.350883256372706 0 0 0
286 1 3.20245493824974 9.759300000000003 4.4468999999999985 8.125437695365761 0 0 0
287 2 -1.59132486602265 6.506200000000001 2.9646 10.117230157524471 0 0 0
289 2 -1.591625928085608 6.506200000000001 2.9646000000000003 12.686615935994771 0 0 0
290 2 -1.591324866022651 9.759299999999998 2.9646000000000003 9.401369842475535 0 0 0
291 2 -1.585004890179606 8.47482705562203 4.446899999999999 11.375220938548086 0 0 0
292 2 -1.585004890179611 11.727927055622029 4.446900000000001 8.143379061451913 0 0 0
293 2 -1.585004890179609 11.043772944377967 4.446899999999999 11.375220938548088 0 0 0
294 2 -1.585004890179607 7.790672944377968 4.446900000000001 8.143379061451913 0 0 0
320 1 3.205475833591664 9.759300000000001 5.9292 11.350883256372706 0 0 0
322 1 3.20245493824974 9.759300000000003 7.411499999999998 8.12543769536576 0 0 0
323 2 -1.591324866022652 6.506200000000001 5.9292 10.11723015752447 0 0 0
325 2 -1.591625928085611 6.506200000000001 5.929199999999998 12.686615935994771 0 0 0
326 2 -1.591324866022651 9.759299999999996 5.9292 9.401369842475534 0 0 0
327 2 -1.585004890179608 8.474827055622033 7.4115 11.375220938548088 0 0 0
328 2 -1.585004890179612 11.727927055622029 7.411499999999999 8.143379061451915 0 0 0
329 2 -1.58500489017961 11.043772944377968 7.411499999999999 11.375220938548088 0 0 0
330 2 -1.585004890179606 7.7906729443779685 7.411499999999999 8.143379061451915 0 0 0
299 2 -1.591324866022652 13.012399999999998 2.9646000000000003 10.117230157524473 0 0 0
356 1 3.205475833591665 9.759300000000003 8.893799999999997 11.350883256372708 0 0 0
271 1 3.205475833591657 19.518599999999996 2.9646000000000017 8.167716743627293 -1 0 0
48 2 -1.591625928085626 16.265499999999996 1.7163593996415833e-15 6.831984064005214 0 0 0
84 2 -1.591625928085624 16.2655 2.9646000000000003 6.831984064005212 0 0 0
120 2 -1.591625928085624 16.2655 5.9292 6.831984064005212 0 0 0
259 1 3.205475833591659 13.012400000000001 3.7627428472628643e-16 8.167716743627292 0 0 0
260 1 3.205475833591665 16.2655 0 11.350883256372704 0 0 0
261 1 3.20245493824974 13.012400000000001 1.4823 11.393162304634235 0 0 0
262 1 3.202454938249734 16.2655 1.4823000000000004 8.125437695365761 0 0 0
263 2 -1.591324866022655 13.0124 8.539653857219925e-16 10.117230157524475 0 0 0
265 2 -1.591625928085609 13.0124 2.4246569703237185e-15 12.68661593599477 0 0 0
266 2 -1.591324866022657 16.2655 1.0500781443210194e-15 9.401369842475539 0 0 0
267 2 -1.585004890179606 14.981027055622032 1.4823000000000008 11.375220938548091 0 0 0
268 2 -1.585004890179619 18.23412705562203 1.4823000000000002 8.143379061451911 0 0 0
269 2 -1.585004890179607 17.549972944377966 1.4823000000000002 11.375220938548093 0 0 0
270 2 -1.585004890179617 14.296872944377968 1.4823000000000022 8.143379061451913 0 0 0
295 1 3.20547583359166 13.012400000000003 2.9645999999999986 8.16771674362729 0 0 0
296 1 3.205475833591665 16.265500000000003 2.9646000000000012 11.3508832563727 0 0 0
297 1 3.20245493824974 13.0124 4.446900000000001 11.393162304634235 0 0 0
298 1 3.202454938249734 16.265500000000003 4.4469 8.125437695365763 0 0 0
301 2 -1.591625928085607 13.0124 2.964600000000001 12.686615935994773 0 0 0
302 2 -1.591324866022659 16.2655 2.9645999999999995 9.401369842475539 0 0 0
303 2 -1.585004890179607 14.98102705562203 4.446899999999998 11.375220938548091 0 0 0
304 2 -1.585004890179621 18.234127055622032 4.446899999999999 8.143379061451911 0 0 0
305 2 -1.585004890179608 17.549972944377966 4.4468999999999985 11.375220938548095 0 0 0
306 2 -1.585004890179615 14.296872944377967 4.4469 8.143379061451911 0 0 0
331 1 3.20547583359166 13.012400000000003 5.929199999999999 8.167716743627292 0 0 0
332 1 3.205475833591664 16.2655 5.9292000000000025 11.3508832563727 0 0 0
333 1 3.20245493824974 13.012400000000001 7.411500000000001 11.393162304634236 0 0 0
334 1 3.202454938249735 16.265500000000003 7.411499999999999 8.125437695365763 0 0 0
335 2 -1.591324866022654 13.0124 5.929199999999999 10.117230157524471 0 0 0
337 2 -1.59162592808561 13.0124 5.929199999999998 12.686615935994775 0 0 0
338 2 -1.591324866022662 16.265499999999996 5.929199999999999 9.401369842475539 0 0 0
339 2 -1.58500489017961 14.981027055622029 7.411499999999999 11.375220938548093 0 0 0
340 2 -1.585004890179622 18.234127055622032 7.411499999999999 8.14337906145191 0 0 0
341 2 -1.585004890179612 17.54997294437797 7.411499999999998 11.375220938548095 0 0 0
342 2 -1.585004890179615 14.296872944377968 7.4115 8.143379061451913 0 0 0
132 2 -1.591625928085617 3.253100000000001 8.893799999999999 6.8319840640052165 0 0 0
168 2 -1.591625928085618 3.2531000000000003 11.858400000000001 6.831984064005218 0 0 0
204 2 -1.591625928085619 3.2531 14.822999999999999 6.831984064005221 0 0 0
344 1 3.205475833591662 3.253099999999998 8.893799999999999 11.350883256372704 0 0 0
345 1 3.20245493824974 0 10.376099999999997 11.393162304634235 0 0 0
346 1 3.202454938249738 3.2530999999999914 10.3761 8.125437695365761 0 0 0
347 2 -1.591324866022661 1.4498787145975798e-15 8.8938 10.117230157524476 0 0 0
349 2 -1.591625928085612 0 8.893799999999999 12.686615935994775 0 0 0
350 2 -1.591324866022656 3.2531000000000057 8.893800000000002 9.401369842475534 0 0 0
351 2 -1.585004890179612 1.9686270556220329 10.376100000000003 11.37522093854809 0 0 0
352 2 -1.585004890179606 5.221727055622033 10.3761 8.143379061451915 0 0 0
353 2 -1.585004890179607 4.5375729443779695 10.376100000000003 11.375220938548088 0 0 0
354 2 -1.585004890179619 1.2844729443779725 10.376100000000001 8.143379061451911 0 0 0
379 1 3.205475833591656 0 11.858399999999998 8.167716743627293 0 0 0
380 1 3.205475833591665 3.2530999999999977 11.858399999999998 11.350883256372708 0 0 0
381 1 3.202454938249743 0 13.340699999999996 11.393162304634235 0 0 0
382 1 3.202454938249738 3.253099999999992 13.3407 8.125437695365761 0 0 0
383 2 -1.591324866022657 1.019392309223726e-15 11.858400000000003 10.117230157524476 0 0 0
385 2 -1.59162592808561 0 11.858399999999998 12.686615935994773 0 0 0
386 2 -1.591324866022652 3.2531000000000057 11.858400000000001 9.401369842475535 0 0 0
387 2 -1.585004890179608 1.9686270556220336 13.3407 11.375220938548086 0 0 0
388 2 -1.585004890179605 5.221727055622032 13.340699999999998 8.143379061451915 0 0 0
389 2 -1.585004890179604 4.537572944377969 13.3407 11.375220938548088 0 0 0
390 2 -1.585004890179616 1.2844729443779712 13.340700000000002 8.143379061451913 0 0 0
416 1 3.205475833591667 3.253099999999998 14.822999999999999 11.350883256372708 0 0 0
417 1 3.202454938249744 0 16.305299999999995 11.393162304634236 0 0 0
418 1 3.202454938249738 3.253099999999995 16.3053 8.12543769536576 0 0 0
419 2 -1.591324866022653 3.2996236860418154e-16 14.823 10.117230157524478 0 0 0
421 2 -1.591625928085608 4.226645447231557e-16 14.822999999999999 12.68661593599477 0 0 0
422 2 -1.591324866022649 3.2531000000000043 14.822999999999999 9.401369842475537 0 0 0
423 2 -1.585004890179606 1.9686270556220318 16.3053 11.375220938548088 0 0 0
424 2 -1.585004890179609 5.221727055622032 16.305299999999995 8.143379061451915 0 0 0
425 2 -1.585004890179604 4.537572944377968 16.3053 11.375220938548086 0 0 0
426 2 -1.585004890179617 1.2844729443779719 16.305299999999995 8.143379061451913 0 0 0
357 1 3.202454938249741 6.506199999999998 10.376099999999997 11.39316230463424 0 0 0
391 1 3.205475833591665 6.506199999999998 11.8584 8.167716743627292 0 0 0
393 1 3.202454938249743 6.506199999999998 13.3407 11.393162304634242 0 0 0
144 2 -1.591625928085616 9.7593 8.893799999999999 6.831984064005225 0 0 0
180 2 -1.591625928085615 9.7593 11.8584 6.831984064005225 0 0 0
216 2 -1.591625928085617 9.759299999999998 14.822999999999999 6.831984064005225 0 0 0
358 1 3.20245493824974 9.759300000000003 10.3761 8.12543769536576 0 0 0