LAMMPS data file via write_data, version 4 Jul 2026, timestep = 20, units = metal

865 atoms
1 atom types

0 24.4899 xlo xhi
0 24.4899 ylo yhi
0 24.4899 zlo zhi

Masses

1 26.982

Atoms # atomic

1 1 1.0204124999999986 1.0204124999999988 1.0204124999999997 0 0 0
2 1 3.060493122281199 3.0600386462721083 1.0204124999999995 0 0 0
3 1 3.0604931222811986 1.0204124999999993 3.060038646272107 0 0 0
4 1 1.0204124999999997 3.0600253893786302 3.0600253893786302 0 0 0
5 1 5.100951446085598 1.0204124999999982 1.0204125000000002 0 0 0
8 1 5.100671310944873 3.0597797031270386 3.059779703127038 0 0 0
25 1 1.0204124999999986 5.10004339020469 1.020412499999999 0 0 0
27 1 3.0601121460152947 5.099828746695966 3.059737582372873 0 0 0
29 1 5.100531284042167 5.09974361261993 1.020412499999998 0 0 0
145 1 1.0204124999999988 1.020412499999999 5.100043390204693 0 0 0
146 1 3.0601121460152934 3.059737582372874 5.099828746695965 0 0 0
149 1 5.100531284042168 1.0204125000000002 5.09974361261993 0 0 0
169 1 1.020412499999998 5.09973391199024 5.09973391199024 0 0 0
173 1 5.09935910673275 5.098806907617696 5.098806907617697 0 0 0
6 1 7.1415840405552045 3.0597662894055175 1.0204124999999997 0 0 0
7 1 7.1415840405552045 1.0204125 3.0597662894055184 0 0 0
9 1 9.182768416816257 1.0204124999999995 1.0204125000000004 0 0 0
10 1 11.224053472825329 3.059615961249536 1.0204125000000004 0 0 0
11 1 11.224053472825327 1.0204124999999993 3.0596159612495355 0 0 0
12 1 9.182580026945965 3.0593969127190492 3.059396912719049 0 0 0
31 1 7.14097405582253 5.099129383361539 3.0590005692130298 0 0 0
33 1 9.18257706822213 5.099445954712274 1.0204124999999993 0 0 0
35 1 11.223894990854838 5.0987997356086145 3.0584839694198815 0 0 0
150 1 7.14097405582253 3.0590005692130298 5.09912938336154 0 0 0
153 1 9.18257706822213 1.0204124999999986 5.099445954712275 0 0 0
154 1 11.22389499085484 3.0584839694198815 5.098799735608615 0 0 0
177 1 9.18148871988911 5.097359610384646 5.097359610384646 0 0 0
13 1 13.265362499999998 1.0204124999999995 1.0204125 0 0 0
14 1 15.30667152717467 3.0596159612495346 1.0204125000000004 0 0 0
15 1 15.30667152717467 1.0204124999999993 3.059615961249535 0 0 0
16 1 13.265362499999998 3.059462598613239 3.0594625986132384 0 0 0
17 1 17.347956583183738 1.0204124999999995 1.0204124999999982 0 0 0
20 1 17.34814497305403 3.0593969127190492 3.0593969127190497 0 0 0
37 1 13.265362499999998 5.099647809504283 1.0204124999999993 0 0 0
39 1 15.306830009145157 5.0987997356086145 3.058483969419883 0 0 0
41 1 17.348147931777866 5.099445954712274 1.020412499999998 0 0 0
157 1 13.265362499999998 1.0204125 5.099647809504283 0 0 0
158 1 15.306830009145157 3.0584839694198815 5.098799735608615 0 0 0
161 1 17.348147931777866 1.0204124999999997 5.099445954712275 0 0 0
181 1 13.265362499999998 5.097770961801269 5.09777096180127 0 0 0
185 1 17.349236280110887 5.097359610384645 5.097359610384645 0 0 0
18 1 19.389140959444795 3.0597662894055184 1.0204125000000006 0 0 0
19 1 19.389140959444795 1.0204125000000002 3.059766289405517 0 0 0
21 1 21.429773553914398 1.0204125000000006 1.0204124999999986 0 0 0
22 1 23.4702318777188 3.0600386462721083 1.0204125000000004 0 0 0
23 1 23.4702318777188 1.020412499999998 3.0600386462721074 0 0 0
24 1 21.430053689055125 3.059779703127038 3.0597797031270377 0 0 0
43 1 19.389750944177464 5.099129383361539 3.059000569213029 0 0 0
45 1 21.430193715957827 5.099743612619929 1.0204125 0 0 0
47 1 23.4706128539847 5.099828746695967 3.0597375823728745 0 0 0
162 1 19.389750944177468 3.059000569213029 5.099129383361539 0 0 0
165 1 21.43019371595783 1.0204124999999984 5.09974361261993 0 0 0
166 1 23.470612853984704 3.0597375823728754 5.099828746695965 0 0 0
189 1 21.431365893267248 5.098806907617696 5.098806907617698 0 0 0
26 1 3.0600066880439205 7.140401398871569 1.020412500000001 0 0 0
28 1 1.020412499999998 7.140427988627058 3.05964227443526 0 0 0
32 1 5.0996009534821765 7.139837417170356 3.058832566023066 0 0 0
49 1 1.0204124999999988 9.181570591898254 1.020412499999998 0 0 0
50 1 3.0594469765855288 11.223141355525804 1.0204125000000015 0 0 0
51 1 3.059218924762941 9.181358068712129 3.059001889575742 0 0 0
52 1 1.0204125000000002 11.223229397649817 3.059185659510546 0 0 0
53 1 5.099802646181911 9.181278229294753 1.0204125 0 0 0
56 1 5.098361903438749 11.222746618770849 3.0573476686414542 0 0 0
170 1 3.0588754564771836 7.13990011445241 5.098980610675926 0 0 0
193 1 1.0204125 9.181545343101757 5.099304926101211 0 0 0
194 1 3.0571495983176464 11.222980580530706 5.098072621798618 0 0 0
197 1 5.0965558157829705 9.179981683783097 5.096387749904193 0 0 0
30 1 7.141034482793593 7.140019906752725 1.0204124999999993 0 0 0
34 1 11.223877757435083 7.140752784190768 1.020412499999999 0 0 0
36 1 9.181990037489811 7.139261496537632 3.057765508196925 0 0 0
54 1 7.140923240608158 11.223436795901803 1.0204124999999977 0 0 0
55 1 7.139944030562396 9.180565518328178 3.0573613173251735 0 0 0
57 1 9.182406270396038 9.181992917966712 1.0204124999999997 0 0 0
58 1 11.223974236337463 11.224117827707815 1.0204124999999997 0 0 0
59 1 11.223562124319063 9.181770580713401 3.0580819980842495 0 0 0
60 1 9.181733739640375 11.223349632956376 3.058178997681113 0 0 0
174 1 7.138608313860219 7.13772058561681 5.096303994829475 0 0 0
178 1 11.223407139531595 7.136062461010056 5.09471275618165 0 0 0
198 1 7.135675144568048 11.220368278026097 5.09218256087651 0 0 0
201 1 9.179700207063524 9.177201193737366 5.093192602061406 0 0 0
202 1 11.221919713892484 11.22299831905044 5.096061878647207 0 0 0
38 1 15.306847242564915 7.14075278419077 1.0204124999999984 0 0 0
40 1 13.265362499999998 7.1397972671980625 3.0576564013973706 0 0 0
44 1 17.348734962510186 7.139261496537631 3.0577655081969257 0 0 0
61 1 13.265362499999998 9.182760826622662 1.020412499999999 0 0 0
62 1 15.306750763662535 11.224117827707817 1.0204124999999993 0 0 0
63 1 15.307162875680934 9.1817705807134 3.0580819980842495 0 0 0
64 1 13.265362499999998 11.224072724091009 3.0592186728168964 0 0 0
65 1 17.348318729603957 9.181992917966712 1.0204124999999993 0 0 0
68 1 17.34899126035962 11.223349632956378 3.058178997681113 0 0 0
182 1 15.307317860468402 7.136062461010056 5.09471275618165 0 0 0
205 1 13.265362499999998 9.178765338155772 5.093677859174749 0 0 0
206 1 15.30880528610751 11.22299831905044 5.096061878647206 0 0 0
209 1 17.351024792936474 9.177201193737366 5.093192602061409 0 0 0
42 1 19.389690517206404 7.140019906752725 1.0204125000000006 0 0 0
46 1 23.470718311956077 7.140401398871571 1.0204125000000004 0 0 0
48 1 21.431124046517823 7.139837417170356 3.058832566023065 0 0 0
66 1 19.389801759391837 11.2234367959018 1.0204124999999997 0 0 0
67 1 19.3907809694376 9.180565518328178 3.0573613173251757 0 0 0
69 1 21.430922353818087 9.181278229294753 1.0204124999999982 0 0 0
70 1 23.471278023414467 11.223141355525804 1.0204124999999997 0 0 0
71 1 23.471506075237052 9.181358068712127 3.059001889575741 0 0 0
72 1 21.43236309656125 11.222746618770849 3.0573476686414542 0 0 0
186 1 19.392116686139776 7.13772058561681 5.0963039948294755 0 0 0
190 1 23.471849543522815 7.139900114452408 5.098980610675926 0 0 0
210 1 19.39504985543195 11.220368278026097 5.092182560876509 0 0 0
213 1 21.434169184217026 9.179981683783097 5.096387749904191 0 0 0
214 1 23.47357540168235 11.222980580530706 5.098072621798619 0 0 0
73 1 1.020412499999999 13.2653625 1.0204124999999993 0 0 0
74 1 3.0594469765855297 15.30758364447419 1.0204124999999995 0 0 0
75 1 3.0581508389893837 13.2653625 3.0580303031425693 0 0 0
76 1 1.0204124999999973 15.30749560235018 3.059185659510546 0 0 0
77 1 5.099717843928193 13.2653625 1.0204124999999982 0 0 0
80 1 5.098361903438751 15.307978381229148 3.057347668641454 0 0 0
97 1 1.0204124999999986 17.349154408101747 1.0204124999999997 0 0 0
99 1 3.059218924762944 17.349366931287868 3.059001889575742 0 0 0
101 1 5.099802646181912 17.349446770705242 1.0204125 0 0 0
217 1 1.020412499999999 13.265362499999998 5.09982636734984 0 0 0
218 1 3.057149598317646 15.30774441946929 5.098072621798618 0 0 0
221 1 5.092740663533436 13.265362499999998 5.092439283522947 0 0 0
241 1 1.0204124999999986 17.349179656898244 5.099304926101211 0 0 0
245 1 5.0965558157829705 17.3507433162169 5.096387749904191 0 0 0
78 1 7.140923240608158 15.307288204098196 1.0204124999999993 0 0 0
79 1 7.139907627712475 13.2653625 3.057733683178484 0 0 0
81 1 9.182493043628593 13.2653625 1.0204124999999975 0 0 0
82 1 11.223974236337465 15.306607172292184 1.0204124999999984 0 0 0
83 1 11.223648399000924 13.265362499999998 3.059268556470308 0 0 0
84 1 9.181733739640373 15.307375367043623 3.058178997681112 0 0 0
103 1 7.139944030562396 17.35015948167182 3.057361317325173 0 0 0
105 1 9.182406270396038 17.348732082033283 1.0204124999999995 0 0 0
107 1 11.223562124319063 17.3489544192866 3.0580819980842495 0 0 0
222 1 7.135675144568047 15.3103567219739 5.092182560876507 0 0 0
225 1 9.179317656999457 13.265362499999998 5.095672145134626 0 0 0
226 1 11.221919713892486 15.307726680949559 5.096061878647206 0 0 0
249 1 9.179700207063524 17.353523806262633 5.093192602061406 0 0 0
85 1 13.265362499999998 13.2653625 1.0204124999999986 0 0 0
86 1 15.306750763662533 15.306607172292182 1.0204125000000002 0 0 0
87 1 15.307076600999075 13.265362499999998 3.0592685564703093 0 0 0
88 1 13.265362499999998 15.30665227590899 3.0592186728168964 0 0 0
89 1 17.348231956371407 13.265362499999998 1.0204124999999997 0 0 0
92 1 17.34899126035962 15.30737536704362 3.0581789976811136 0 0 0
109 1 13.265362499999998 17.347964173377335 1.0204125 0 0 0
111 1 15.307162875680934 17.348954419286596 3.0580819980842495 0 0 0
113 1 17.34831872960396 17.348732082033287 1.0204125000000006 0 0 0
229 1 13.265362499999998 13.265362499999998 5.09862591600086 0 0 0
230 1 15.308805286107512 15.307726680949559 5.096061878647206 0 0 0
233 1 17.351407343000538 13.2653625 5.095672145134623 0 0 0
253 1 13.265362499999998 17.351959661844226 5.093677859174749 0 0 0
257 1 17.351024792936474 17.353523806262633 5.093192602061407 0 0 0
90 1 19.389801759391837 15.307288204098196 1.0204124999999977 0 0 0
91 1 19.390817372287522 13.265362499999998 3.057733683178486 0 0 0
93 1 21.431007156071804 13.265362499999998 1.0204124999999973 0 0 0
94 1 23.471278023414467 15.307583644474194 1.0204124999999986 0 0 0
95 1 23.472574161010613 13.2653625 3.0580303031425697 0 0 0
96 1 21.432363096561247 15.30797838122915 3.0573476686414534 0 0 0
115 1 19.3907809694376 17.35015948167182 3.0573613173251735 0 0 0
117 1 21.430922353818087 17.349446770705246 1.0204124999999997 0 0 0
119 1 23.471506075237052 17.349366931287868 3.0590018895757414 0 0 0
234 1 19.39504985543195 15.310356721973902 5.09218256087651 0 0 0
237 1 21.43798433646656 13.265362499999998 5.092439283522948 0 0 0
238 1 23.47357540168235 15.30774441946929 5.098072621798617 0 0 0
261 1 21.434169184217026 17.350743316216903 5.09638774990419 0 0 0
98 1 3.0600066880439205 19.390323601128426 1.0204125000000006 0 0 0
100 1 1.0204124999999975 19.39029701137294 3.059642274435259 0 0 0
104 1 5.0996009534821765 19.39088758282964 3.0588325660230655 0 0 0
121 1 1.0204124999999984 21.430681609795307 1.020412500000001 0 0 0
122 1 3.0604931222812004 23.470686353727892 1.0204124999999993 0 0 0
123 1 3.0601121460152947 21.43089625330403 3.059737582372873 0 0 0
124 1 1.0204124999999975 23.470699610621367 3.06002538937863 0 0 0
125 1 5.100531284042168 21.43098138738007 1.020412499999999 0 0 0
128 1 5.100671310944872 23.47094529687296 3.059779703127038 0 0 0
242 1 3.0588754564771823 19.390824885547588 5.098980610675927 0 0 0
265 1 1.0204124999999977 21.430991088009755 5.099733911990242 0 0 0
266 1 3.0601121460152942 23.470987417627125 5.099828746695964 0 0 0
269 1 5.099359106732751 21.4319180923823 5.098806907617698 0 0 0
102 1 7.141034482793594 19.390705093247274 1.0204125 0 0 0
106 1 11.22387775743508 19.389972215809227 1.020412500000001 0 0 0
108 1 9.181990037489815 19.39146350346237 3.0577655081969235 0 0 0
126 1 7.141584040555203 23.47095871059448 1.0204125 0 0 0
127 1 7.1409740558225305 21.431595616638457 3.0590005692130315 0 0 0
129 1 9.18257706822213 21.431279045287724 1.0204124999999975 0 0 0
130 1 11.224053472825329 23.471109038750463 1.0204125000000008 0 0 0
131 1 11.223894990854838 21.43192526439138 3.058483969419881 0 0 0
132 1 9.182580026945965 23.47132808728095 3.0593969127190492 0 0 0
246 1 7.138608313860219 19.39300441438319 5.0963039948294755 0 0 0
250 1 11.223407139531595 19.39466253898994 5.094712756181648 0 0 0
270 1 7.1409740558225305 23.471724430786967 5.09912938336154 0 0 0
273 1 9.181488719889108 21.43336538961535 5.097359610384646 0 0 0
274 1 11.22389499085484 23.472241030580115 5.098799735608616 0 0 0
110 1 15.306847242564917 19.389972215809227 1.0204124999999982 0 0 0
112 1 13.265362499999997 19.390927732801938 3.057656401397372 0 0 0
116 1 17.348734962510186 19.391463503462365 3.0577655081969235 0 0 0
133 1 13.265362499999998 21.431077190495717 1.0204125000000002 0 0 0
134 1 15.30667152717467 23.471109038750463 1.0204125 0 0 0
135 1 15.306830009145159 21.43192526439138 3.0584839694198824 0 0 0
136 1 13.265362499999998 23.471262401386756 3.0594625986132398 0 0 0
137 1 17.348147931777866 21.431279045287727 1.0204124999999986 0 0 0
140 1 17.34814497305403 23.47132808728095 3.0593969127190492 0 0 0
254 1 15.3073178604684 19.39466253898994 5.09471275618165 0 0 0
277 1 13.265362499999998 21.432954038198726 5.097770961801271 0 0 0
278 1 15.306830009145157 23.472241030580115 5.0987997356086145 0 0 0
281 1 17.34923628011089 21.433365389615354 5.097359610384646 0 0 0
114 1 19.3896905172064 19.390705093247274 1.0204124999999997 0 0 0
118 1 23.470718311956077 19.390323601128426 1.0204124999999984 0 0 0
120 1 21.43112404651782 19.39088758282964 3.058832566023065 0 0 0
138 1 19.389140959444795 23.470958710594477 1.0204124999999993 0 0 0
139 1 19.389750944177468 21.431595616638457 3.0590005692130293 0 0 0
141 1 21.430193715957834 21.43098138738007 1.0204124999999986 0 0 0
142 1 23.4702318777188 23.470686353727892 1.0204124999999993 0 0 0
143 1 23.470612853984704 21.43089625330403 3.059737582372874 0 0 0
144 1 21.430053689055125 23.47094529687296 3.0597797031270386 0 0 0
258 1 19.392116686139776 19.39300441438319 5.096303994829474 0 0 0
262 1 23.471849543522815 19.390824885547588 5.098980610675925 0 0 0
282 1 19.389750944177468 23.471724430786967 5.099129383361542 0 0 0
285 1 21.431365893267245 21.431918092382304 5.098806907617697 0 0 0
286 1 23.470612853984704 23.47098741762712 5.099828746695963 0 0 0
147 1 3.060006688043919 1.0204124999999995 7.140401398871571 0 0 0
148 1 1.020412499999999 3.0596422744352574 7.1404279886270565 0 0 0
152 1 5.0996009534821765 3.0588325660230655 7.139837417170356 0 0 0
171 1 3.0588754564771836 5.098980610675927 7.13990011445241 0 0 0
289 1 1.0204124999999984 1.0204124999999995 9.181570591898252 0 0 0
290 1 3.059218924762943 3.059001889575741 9.181358068712129 0 0 0
291 1 3.05944697658553 1.0204124999999984 11.223141355525806 0 0 0
292 1 1.0204124999999982 3.059185659510546 11.223229397649817 0 0 0
293 1 5.09980264618191 1.0204124999999995 9.181278229294755 0 0 0
296 1 5.098361903438749 3.0573476686414542 11.222746618770849 0 0 0
313 1 1.0204124999999993 5.099304926101212 9.181545343101757 0 0 0
315 1 3.0571495983176464 5.098072621798617 11.222980580530706 0 0 0
317 1 5.096555815782971 5.096387749904192 9.179981683783097 0 0 0
151 1 7.141034482793594 1.0204124999999988 7.140019906752724 0 0 0
155 1 11.223877757435083 1.0204124999999993 7.140752784190769 0 0 0
156 1 9.181990037489813 3.057765508196924 7.139261496537631 0 0 0
175 1 7.138608313860218 5.096303994829475 7.137720585616809 0 0 0
179 1 11.223407139531595 5.09471275618165 7.136062461010056 0 0 0
294 1 7.139944030562396 3.0573613173251744 9.18056551832818 0 0 0
295 1 7.140923240608157 1.0204125000000004 11.223436795901804 0 0 0
297 1 9.18240627039604 1.0204125 9.181992917966712 0 0 0
298 1 11.223562124319063 3.058081998084249 9.181770580713401 0 0 0
299 1 11.223974236337462 1.0204125000000002 11.224117827707815 0 0 0
300 1 9.181733739640373 3.0581789976811136 11.223349632956376 0 0 0
319 1 7.135675144568048 5.092182560876508 11.220368278026097 0 0 0
321 1 9.179700207063524 5.093192602061406 9.177201193737366 0 0 0
323 1 11.221919713892484 5.096061878647207 11.222998319050442 0 0 0
159 1 15.306847242564917 1.0204125 7.140752784190769 0 0 0
160 1 13.265362499999998 3.0576564013973706 7.1397972671980625 0 0 0
164 1 17.348734962510186 3.057765508196924 7.139261496537632 0 0 0
183 1 15.307317860468402 5.094712756181648 7.136062461010056 0 0 0
301 1 13.265362499999998 1.0204124999999995 9.182760826622664 0 0 0
302 1 15.307162875680932 3.0580819980842495 9.181770580713401 0 0 0
303 1 15.306750763662535 1.0204125000000002 11.224117827707815 0 0 0
304 1 13.265362499999998 3.0592186728168973 11.224072724091007 0 0 0
305 1 17.348318729603957 1.0204124999999995 9.181992917966712 0 0 0
308 1 17.34899126035962 3.058178997681112 11.223349632956378 0 0 0
325 1 13.265362499999998 5.093677859174749 9.178765338155772 0 0 0
327 1 15.308805286107512 5.096061878647207 11.22299831905044 0 0 0
329 1 17.35102479293647 5.093192602061406 9.177201193737368 0 0 0
163 1 19.389690517206404 1.0204124999999982 7.140019906752727 0 0 0
167 1 23.47071831195608 1.0204124999999993 7.14040139887157 0 0 0
168 1 21.43112404651782 3.0588325660230673 7.139837417170359 0 0 0
187 1 19.39211668613978 5.096303994829475 7.137720585616812 0 0 0
191 1 23.471849543522815 5.098980610675926 7.139900114452409 0 0 0
306 1 19.3907809694376 3.057361317325173 9.180565518328176 0 0 0
307 1 19.38980175939184 1.0204124999999988 11.2234367959018 0 0 0
309 1 21.430922353818083 1.0204124999999984 9.181278229294755 0 0 0
310 1 23.471506075237055 3.0590018895757414 9.18135806871213 0 0 0
311 1 23.47127802341447 1.020412500000001 11.223141355525804 0 0 0
312 1 21.432363096561247 3.057347668641454 11.222746618770849 0 0 0
331 1 19.39504985543195 5.09218256087651 11.220368278026099 0 0 0
333 1 21.434169184217026 5.096387749904191 9.179981683783097 0 0 0
335 1 23.47357540168235 5.098072621798617 11.222980580530708 0 0 0
172 1 1.0204124999999982 7.140232783644831 7.140232783644832 0 0 0
176 1 5.095954869798084 7.13761430763926 7.13761430763926 0 0 0
195 1 3.0567143578935343 9.181006788286249 7.139344540548808 0 0 0
196 1 1.0204125 11.223879166679266 7.141424513381128 0 0 0
200 1 5.091550484881474 11.220947778155578 7.134595749969163 0 0 0
314 1 3.0567143578935347 7.139344540548809 9.181006788286249 0 0 0
316 1 1.0204125000000002 7.141424513381124 11.223879166679266 0 0 0
320 1 5.091550484881475 7.134595749969164 11.220947778155576 0 0 0
337 1 1.020412499999998 9.182787102113172 9.182787102113172 0 0 0
338 1 3.0588150864284045 11.224036317781747 9.182686781257184 0 0 0
339 1 3.0588150864284054 9.182686781257182 11.22403631778175 0 0 0
340 1 1.0204125 11.224612891140534 11.224612891140534 0 0 0
341 1 5.09120580399671 9.177556389978426 9.177556389978426 0 0 0
344 1 5.0991853145870385 11.2240716073052 11.2240716073052 0 0 0
180 1 9.177916076750376 7.133235801745077 7.133235801745078 0 0 0
199 1 7.132262909585951 9.175504565783363 7.131639530624688 0 0 0
203 1 11.222250719317005 9.168311102258453 7.12634142228744 0 0 0
204 1 9.172583321105755 11.212169123653458 7.123405282686683 0 0 0
318 1 7.13226290958595 7.131639530624688 9.175504565783365 0 0 0
322 1 11.222250719317005 7.12634142228744 9.168311102258453 0 0 0
324 1 9.172583321105755 7.123405282686683 11.212169123653457 0 0 0
342 1 7.121135347195946 11.213297964882077 9.168318945079026 0 0 0
343 1 7.121135347195945 9.168318945079026 11.213297964882077 0 0 0
345 1 9.16529646126291 9.165380854012854 9.165380854012854 0 0 0
346 1 11.220833665877976 11.179017838597229 9.145898834807696 0 0 0
347 1 11.220833665877976 9.145898834807696 11.179017838597229 0 0 0
348 1 9.148532166687087 11.197419273823597 11.197419273823597 0 0 0
184 1 13.265362499999997 7.136118360733322 7.136118360733323 0 0 0
188 1 17.35280892324962 7.133235801745079 7.1332358017450765 0 0 0
207 1 15.308474280682992 9.168311102258453 7.12634142228744 0 0 0
208 1 13.265362499999998 11.218918175012591 7.125602234548799 0 0 0
212 1 17.358141678894246 11.212169123653457 7.123405282686684 0 0 0
326 1 15.308474280682992 7.12634142228744 9.168311102258453 0 0 0
328 1 13.265362499999998 7.125602234548797 11.218918175012593 0 0 0
332 1 17.358141678894246 7.123405282686684 11.212169123653458 0 0 0
349 1 13.265362499999998 9.181005525150525 9.181005525150525 0 0 0
350 1 15.309891334122021 11.179017838597229 9.145898834807696 0 0 0
351 1 15.309891334122021 9.145898834807696 11.179017838597229 0 0 0
352 1 13.2653625 11.278859485555147 11.278859485555147 0 0 0
353 1 17.365428538737085 9.165380854012854 9.165380854012856 0 0 0
356 1 17.38219283331291 11.197419273823595 11.197419273823597 0 0 0
192 1 21.434770130201915 7.137614307639258 7.137614307639259 0 0 0
211 1 19.398462090414043 9.175504565783363 7.131639530624688 0 0 0
215 1 23.47401064210646 9.181006788286249 7.13934454054881 0 0 0
216 1 21.439174515118523 11.22094777815558 7.134595749969164 0 0 0
330 1 19.398462090414046 7.131639530624688 9.175504565783363 0 0 0
334 1 23.47401064210646 7.139344540548809 9.181006788286249 0 0 0
336 1 21.439174515118523 7.134595749969164 11.220947778155578 0 0 0
354 1 19.40958965280405 11.213297964882079 9.168318945079026 0 0 0
355 1 19.40958965280405 9.168318945079026 11.213297964882079 0 0 0
357 1 21.439519196003285 9.177556389978426 9.177556389978427 0 0 0
358 1 23.47190991357159 11.224036317781746 9.182686781257182 0 0 0
359 1 23.471909913571594 9.182686781257182 11.224036317781747 0 0 0
360 1 21.431539685412957 11.224071607305198 11.224071607305198 0 0 0
219 1 3.0578189692411026 13.265362499999998 7.140417839480018 0 0 0
220 1 1.0204124999999986 15.306845833320732 7.141424513381125 0 0 0
224 1 5.091550484881473 15.30977722184442 7.134595749969164 0 0 0
243 1 3.0567143578935356 17.34971821171375 7.13934454054881 0 0 0
361 1 1.0204125000000006 13.265362499999998 9.183523309766183 0 0 0
362 1 3.058815086428405 15.30668868221825 9.182686781257182 0 0 0
363 1 3.0607871835368003 13.265362499999998 11.224660557387717 0 0 0
364 1 1.0204124999999993 15.306112108859464 11.224612891140534 0 0 0
365 1 5.0970723601027315 13.265362499999998 9.1806127158348 0 0 0
368 1 5.09918531458704 15.306653392694798 11.2240716073052 0 0 0
385 1 1.0204124999999988 17.347937897886826 9.182787102113174 0 0 0
387 1 3.058815086428404 17.348038218742815 11.224036317781747 0 0 0
389 1 5.09120580399671 17.353168610021573 9.177556389978426 0 0 0
223 1 7.118433683347139 13.265362499999998 7.117045299685387 0 0 0
227 1 11.21628069113166 13.265362499999998 7.13905138655136 0 0 0
228 1 9.172583321105755 15.318555876346538 7.123405282686684 0 0 0
247 1 7.132262909585953 17.355220434216633 7.13163953062469 0 0 0
251 1 11.222250719317005 17.362413897741547 7.12634142228744 0 0 0
366 1 7.1211353471959455 15.317427035117921 9.168318945079026 0 0 0
367 1 7.14349252214637 13.265362499999998 11.222270371488682 0 0 0
369 1 9.110872491729953 13.265362499999998 9.11209086452799 0 0 0
370 1 11.220833665877976 15.351707161402768 9.145898834807696 0 0 0
371 1 11.081436622148813 13.265362499999998 10.945132767006422 0 0 0
372 1 9.148532166687087 15.333305726176402 11.197419273823597 0 0 0
391 1 7.1211353471959455 17.36240605492097 11.213297964882077 0 0 0
393 1 9.16529646126291 17.365344145987144 9.165380854012854 0 0 0
395 1 11.220833665877976 17.3848261651923 11.179017838597227 0 0 0
231 1 15.314444308868337 13.2653625 7.139051386551361 0 0 0
232 1 13.265362499999998 15.311806824987407 7.125602234548798 0 0 0
236 1 17.358141678894246 15.31855587634654 7.123405282686684 0 0 0
255 1 15.308474280682992 17.362413897741543 7.126341422287439 0 0 0
373 1 13.265362499999998 13.265362499999998 9.156262412133687 0 0 0
374 1 15.309891334122021 15.351707161402768 9.145898834807697 0 0 0
375 1 15.449288377851182 13.265362499999998 10.945132767006424 0 0 0
376 1 13.2653625 15.251865514444852 11.278859485555147 0 0 0
377 1 17.419852508270044 13.265362499999998 9.112090864527989 0 0 0
380 1 17.38219283331291 15.3333057261764 11.197419273823595 0 0 0
397 1 13.265362499999998 17.349719474849472 9.181005525150525 0 0 0
399 1 15.309891334122021 17.3848261651923 11.17901783859723 0 0 0
401 1 17.36542853873709 17.365344145987144 9.165380854012856 0 0 0
235 1 19.412291316652855 13.265362499999998 7.117045299685389 0 0 0
239 1 23.472906030758896 13.2653625 7.140417839480017 0 0 0
240 1 21.439174515118523 15.309777221844419 7.134595749969164 0 0 0
259 1 19.398462090414046 17.355220434216633 7.131639530624688 0 0 0
263 1 23.47401064210646 17.34971821171375 7.13934454054881 0 0 0
378 1 19.409589652804048 15.31742703511792 9.168318945079026 0 0 0
379 1 19.38723247785363 13.265362499999998 11.222270371488682 0 0 0
381 1 21.433652639897264 13.265362499999998 9.1806127158348 0 0 0
382 1 23.471909913571594 15.306688682218251 9.182686781257182 0 0 0
383 1 23.469937816463197 13.265362499999998 11.224660557387715 0 0 0
384 1 21.431539685412957 15.306653392694797 11.2240716073052 0 0 0
403 1 19.40958965280405 17.36240605492097 11.213297964882077 0 0 0
405 1 21.439519196003285 17.353168610021573 9.177556389978426 0 0 0
407 1 23.47190991357159 17.348038218742815 11.224036317781747 0 0 0
244 1 1.0204124999999993 19.390492216355167 7.140232783644829 0 0 0
248 1 5.095954869798084 19.393110692360736 7.13761430763926 0 0 0
267 1 3.0588754564771827 21.43174438932407 7.13990011445241 0 0 0
268 1 1.0204124999999997 23.47108272556474 7.140427988627059 0 0 0
272 1 5.099600953482176 23.47189243397693 7.139837417170357 0 0 0
386 1 3.056714357893535 19.391380459451188 9.181006788286249 0 0 0
388 1 1.0204124999999988 19.389300486618872 11.223879166679266 0 0 0
392 1 5.091550484881475 19.396129250030835 11.22094777815558 0 0 0
409 1 1.0204125000000002 21.43142007389879 9.181545343101755 0 0 0
410 1 3.0592189247629427 23.471723110424257 9.181358068712129 0 0 0
411 1 3.057149598317646 21.43265237820138 11.222980580530708 0 0 0
412 1 1.0204124999999988 23.47153934048945 11.223229397649817 0 0 0
413 1 5.0965558157829705 21.434337250095805 9.179981683783096 0 0 0
416 1 5.098361903438748 23.473377331358545 11.222746618770849 0 0 0
252 1 9.177916076750376 19.39748919825492 7.133235801745078 0 0 0
271 1 7.138608313860218 21.43442100517052 7.137720585616808 0 0 0
275 1 11.223407139531597 21.43601224381835 7.136062461010056 0 0 0
276 1 9.181990037489811 23.472959491803074 7.139261496537632 0 0 0
390 1 7.132262909585952 19.399085469375308 9.175504565783362 0 0 0
394 1 11.222250719317005 19.404383577712558 9.168311102258453 0 0 0
396 1 9.172583321105753 19.407319717313314 11.212169123653458 0 0 0
414 1 7.139944030562396 23.473363682674822 9.180565518328178 0 0 0
415 1 7.135675144568048 21.438542439123488 11.220368278026097 0 0 0
417 1 9.179700207063524 21.437532397938593 9.177201193737368 0 0 0
418 1 11.223562124319063 23.47264300191575 9.181770580713401 0 0 0
419 1 11.221919713892484 21.43466312135279 11.22299831905044 0 0 0
420 1 9.181733739640375 23.472546002318882 11.223349632956378 0 0 0
256 1 13.265362499999998 19.394606639266673 7.136118360733323 0 0 0
260 1 17.35280892324962 19.39748919825492 7.133235801745078 0 0 0
279 1 15.3073178604684 21.436012243818347 7.136062461010058 0 0 0
280 1 13.265362499999998 23.473068598602627 7.1397972671980625 0 0 0
284 1 17.348734962510186 23.472959491803074 7.139261496537632 0 0 0
398 1 15.308474280682992 19.404383577712558 9.168311102258452 0 0 0
400 1 13.265362499999998 19.4051227654512 11.218918175012593 0 0 0
404 1 17.358141678894246 19.407319717313314 11.212169123653457 0 0 0
421 1 13.2653625 21.43704714082525 9.178765338155772 0 0 0
422 1 15.307162875680932 23.47264300191575 9.181770580713403 0 0 0
423 1 15.30880528610751 21.43466312135279 11.22299831905044 0 0 0
424 1 13.2653625 23.4715063271831 11.224072724091009 0 0 0
425 1 17.351024792936474 21.43753239793859 9.177201193737366 0 0 0
428 1 17.34899126035962 23.472546002318886 11.223349632956378 0 0 0
264 1 21.434770130201915 19.393110692360736 7.137614307639261 0 0 0
283 1 19.39211668613978 21.434421005170524 7.137720585616809 0 0 0
287 1 23.471849543522815 21.43174438932407 7.13990011445241 0 0 0
288 1 21.43112404651782 23.471892433976933 7.139837417170356 0 0 0
402 1 19.398462090414046 19.399085469375308 9.175504565783365 0 0 0
406 1 23.47401064210646 19.391380459451188 9.181006788286249 0 0 0
408 1 21.439174515118523 19.39612925003083 11.220947778155578 0 0 0
426 1 19.390780969437603 23.473363682674826 9.180565518328178 0 0 0
427 1 19.39504985543195 21.438542439123488 11.220368278026097 0 0 0
429 1 21.43416918421703 21.434337250095805 9.179981683783097 0 0 0
430 1 23.471506075237055 23.471723110424254 9.18135806871213 0 0 0
431 1 23.47357540168235 21.43265237820138 11.222980580530706 0 0 0
432 1 21.432363096561247 23.473377331358545 11.222746618770847 0 0 0
433 1 1.0204124999999993 1.0204125 13.265362499999998 0 0 0
434 1 3.0581508389893837 3.05803030314257 13.265362499999998 0 0 0
435 1 3.0594469765855306 1.0204125000000006 15.307583644474192 0 0 0
436 1 1.0204125000000004 3.0591856595105464 15.307495602350182 0 0 0
437 1 5.099717843928192 1.0204124999999993 13.265362499999998 0 0 0
440 1 5.0983619034387475 3.0573476686414547 15.30797838122915 0 0 0
457 1 1.020412499999999 5.099826367349839 13.265362499999998 0 0 0
459 1 3.0571495983176464 5.098072621798618 15.30774441946929 0 0 0
461 1 5.092740663533435 5.092439283522948 13.265362499999998 0 0 0
577 1 1.020412499999999 1.0204125000000004 17.349154408101747 0 0 0
578 1 3.059218924762943 3.059001889575742 17.349366931287868 0 0 0
581 1 5.099802646181911 1.0204125000000006 17.349446770705246 0 0 0
601 1 1.0204124999999982 5.09930492610121 17.34917965689824 0 0 0
605 1 5.0965558157829705 5.096387749904192 17.3507433162169 0 0 0
438 1 7.139907627712475 3.057733683178483 13.265362499999998 0 0 0
439 1 7.140923240608159 1.0204124999999988 15.307288204098194 0 0 0