ITEM: TIMESTEP
12000
ITEM: NUMBER OF ATOMS
4000
ITEM: BOX BOUNDS pp pp pp
-2.7781637133476487e+00 4.3278163713348277e+01
4.8213420787573469e-01 4.0017865792124766e+01
4.6603591923864585e-01 4.0033964080761351e+01
ITEM: ATOMS id type xs ys zs c_csym c_pea
1 1 0.0263624 0.0209317 0.0232551 1.33027 -3.55396
2 1 0.0765886 0.0766999 0.0233021 0.547421 -3.49755
3 1 0.0725887 0.0246954 0.071922 0.961724 -3.46815
4 1 0.027776 0.0732512 0.0703798 0.947511 -3.51445
5 1 0.124727 0.0206305 0.0235774 0.926164 -3.47526
8 1 0.122966 0.068213 0.0710614 1.43597 -3.54379
41 1 0.0276191 0.126098 0.0258108 0.836648 -3.46463
43 1 0.0741656 0.127031 0.0671226 2.03745 -3.4682
45 1 0.127478 0.13026 0.0251241 1.95023 -3.5243
401 1 0.0226805 0.0224006 0.115876 1.84857 -3.54698
402 1 0.071319 0.0744725 0.123612 1.11788 -3.53197
405 1 0.122715 0.0200648 0.125292 1.46439 -3.47625
441 1 0.0245603 0.122079 0.123951 0.582484 -3.56659
445 1 0.121993 0.117374 0.120025 2.01275 -3.53135
6 1 0.173309 0.0752517 0.0268678 0.746965 -3.53895
7 1 0.172975 0.0180546 0.0743923 1.87212 -3.49698
9 1 0.223721 0.0292694 0.0236942 1.20182 -3.5249
10 1 0.268695 0.0773014 0.025063 2.49243 -3.558
11 1 0.275786 0.0272236 0.0755288 0.703655 -3.48891
12 1 0.221159 0.0766321 0.0717588 0.888832 -3.48252
47 1 0.168681 0.119841 0.0778657 3.03847 -3.48406
49 1 0.215986 0.128174 0.0271771 4.11542 -3.50725
51 1 0.274693 0.127168 0.0758965 1.0914 -3.52925
406 1 0.17452 0.0696825 0.122043 1.32315 -3.52324
409 1 0.227539 0.0225102 0.127105 1.88615 -3.53904
410 1 0.273223 0.0728455 0.121276 1.3891 -3.51817
449 1 0.221332 0.124752 0.123783 1.27581 -3.48741
13 1 0.327783 0.0247705 0.0233083 1.30856 -3.4816
16 1 0.328881 0.0755488 0.0708825 2.32685 -3.53074
53 1 0.329444 0.124071 0.02163 1.7707 -3.51603
413 1 0.323129 0.0251108 0.12584 0.681396 -3.53794
453 1 0.321981 0.122267 0.126542 1.01961 -3.44856
14 1 0.374656 0.0717567 0.0226081 1.14947 -3.52083
15 1 0.370107 0.0214824 0.0753455 1.47121 -3.42284
55 1 0.373926 0.124194 0.0738605 0.866742 -3.54988
414 1 0.370532 0.0672317 0.126089 7.44772 -3.45511
17 1 0.422618 0.0290379 0.0298596 3.63414 -3.55913
457 1 0.429906 0.12918 0.13334 7.0856 -3.52227
417 1 0.416557 0.0225285 0.118987 3.04663 -3.54487
20 1 0.428307 0.0810877 0.0777886 3.8154 -3.50412
57 1 0.42991 0.122441 0.0248827 1.37304 -3.50414
18 1 0.478757 0.0748833 0.027928 1.39247 -3.51876
19 1 0.470827 0.0163989 0.0763239 3.52374 -3.52638
59 1 0.47524 0.130864 0.0767332 1.6613 -3.50818
418 1 0.477614 0.0748228 0.125363 2.08969 -3.56226
21 1 0.526165 0.019543 0.0223428 2.03112 -3.4842
24 1 0.519478 0.076711 0.0724712 1.78743 -3.48985
61 1 0.528582 0.126802 0.022788 0.877886 -3.57705
421 1 0.516588 0.022263 0.126695 1.62947 -3.49229
461 1 0.523014 0.123538 0.123435 1.10617 -3.54714
422 1 0.56801 0.0774505 0.123336 1.81468 -3.48032
22 1 0.573222 0.078121 0.0240133 0.722537 -3.5469
23 1 0.569902 0.0313941 0.0805072 3.53329 -3.50152
63 1 0.574698 0.127046 0.0738053 0.527035 -3.52967
25 1 0.620711 0.0277317 0.0281151 0.921114 -3.54083
28 1 0.620044 0.0806404 0.0752068 2.24963 -3.47208
65 1 0.626165 0.124937 0.0202457 2.63259 -3.37215
425 1 0.622978 0.0260568 0.118317 3.34269 -3.55518
465 1 0.621741 0.119863 0.130531 2.31589 -3.50866
26 1 0.669656 0.0760843 0.0280929 1.15734 -3.54794
27 1 0.672547 0.0227577 0.0779351 1.28185 -3.4787
67 1 0.672709 0.116964 0.0834457 6.26948 -3.46524
426 1 0.673823 0.072174 0.127438 1.08234 -3.45446
29 1 0.721113 0.0251649 0.0328145 2.24284 -3.44887
30 1 0.782513 0.0776072 0.0262617 5.79584 -3.49661
31 1 0.772524 0.0245021 0.0749167 1.53466 -3.49867
32 1 0.730335 0.0800952 0.0722288 7.99585 -3.47576
33 1 0.820549 0.0170737 0.0285136 2.65585 -3.52257
36 1 0.825117 0.0684945 0.0762052 1.40346 -3.50928
69 1 0.720384 0.130701 0.0248537 3.52488 -3.49979
71 1 0.773084 0.12258 0.0798182 2.47109 -3.50745
73 1 0.824172 0.125419 0.0293102 1.51103 -3.46759
429 1 0.726088 0.0281964 0.124181 1.37051 -3.53829
430 1 0.772864 0.0730717 0.128357 1.35347 -3.51323
433 1 0.821969 0.026567 0.126784 1.11356 -3.52468
469 1 0.722201 0.127662 0.12279 1.7755 -3.50316
473 1 0.823244 0.126363 0.124894 0.761702 -3.57289
34 1 0.874591 0.0732955 0.0284538 0.393516 -3.55403
35 1 0.873337 0.0199037 0.0726352 1.7816 -3.50632
37 1 0.922346 0.0261971 0.0283536 1.39303 -3.53441
38 1 0.973451 0.0694873 0.0199243 3.91005 -3.45819
39 1 0.970345 0.0250025 0.0696497 1.45353 -3.49473
40 1 0.926508 0.0763191 0.0825944 2.97315 -3.43964
75 1 0.881402 0.123949 0.0820119 7.16725 -3.47921
77 1 0.927276 0.123462 0.0324132 1.14024 -3.52479
79 1 0.977519 0.122494 0.0733484 0.894919 -3.58752
434 1 0.875692 0.0699262 0.127661 1.6566 -3.55974
437 1 0.921143 0.0184339 0.122718 1.94423 -3.5609
438 1 0.97474 0.0714258 0.12055 1.20105 -3.5136
477 1 0.924621 0.12222 0.129068 1.65119 -3.41782
442 1 0.0710623 0.16786 0.125296 2.37872 -3.53876
42 1 0.0815313 0.174831 0.0200106 3.74367 -3.50019
44 1 0.0253153 0.177677 0.073336 1.04969 -3.50372
48 1 0.120803 0.173667 0.0763364 2.68356 -3.48698
81 1 0.0217667 0.228608 0.030861 5.81909 -3.53564
82 1 0.0734209 0.276395 0.024743 1.0161 -3.48115
83 1 0.0773337 0.225439 0.0767225 1.0293 -3.54986
84 1 0.0240883 0.272202 0.0849612 3.65267 -3.46932
85 1 0.124681 0.232951 0.0269703 2.60241 -3.5286
88 1 0.126654 0.276274 0.0803809 1.78739 -3.48473
121 1 0.0232959 0.31549 0.0262994 7.53699 -3.56986
123 1 0.069421 0.330895 0.0766424 3.78237 -3.49579
125 1 0.114987 0.324115 0.0272577 6.97726 -3.51018
481 1 0.0250373 0.220769 0.131988 1.73465 -3.51461
482 1 0.0766578 0.274575 0.124048 0.908283 -3.48933
485 1 0.12907 0.224341 0.117782 3.01457 -3.44494
521 1 0.0192481 0.328052 0.124283 3.64442 -3.51487
525 1 0.130216 0.327809 0.127926 2.46092 -3.46744
46 1 0.175091 0.180386 0.029323 1.68071 -3.42256
50 1 0.277826 0.172436 0.0208551 1.22026 -3.48595
52 1 0.223506 0.174101 0.0749942 0.944859 -3.49267
86 1 0.177097 0.276721 0.0210004 1.98914 -3.46418
87 1 0.180361 0.225915 0.0722421 1.84658 -3.42653
89 1 0.228875 0.226271 0.0251965 0.747092 -3.54255
90 1 0.274975 0.278126 0.0255168 6.68448 -3.52847
91 1 0.274846 0.223971 0.076993 1.5145 -3.58639
92 1 0.226142 0.272619 0.0815898 1.45154 -3.53523
127 1 0.174072 0.326543 0.0723972 2.96277 -3.50436
129 1 0.223295 0.327273 0.030773 2.13416 -3.52523
131 1 0.274568 0.323225 0.0789249 0.813196 -3.45936
446 1 0.179455 0.180771 0.122232 6.95276 -3.51871
450 1 0.279135 0.171139 0.129862 1.41572 -3.50915
486 1 0.181941 0.269418 0.129687 3.03761 -3.52346
489 1 0.231578 0.221627 0.1275 1.28533 -3.47056
490 1 0.281886 0.272143 0.126321 1.01684 -3.50556
529 1 0.222355 0.323281 0.132078 3.42826 -3.46348
54 1 0.381081 0.174338 0.0231115 1.63748 -3.50785
60 1 0.426293 0.172741 0.0739279 0.713992 -3.54157
56 1 0.323819 0.167578 0.0781919 2.51789 -3.48859
93 1 0.330647 0.214921 0.0263861 3.51649 -3.51003
96 1 0.326893 0.269553 0.0704766 1.60022 -3.56038
133 1 0.328046 0.321597 0.021702 1.69784 -3.47553
493 1 0.333208 0.224049 0.127224 1.58407 -3.54317
533 1 0.322897 0.322808 0.121023 3.04165 -3.50916
94 1 0.37836 0.264704 0.0241633 2.05622 -3.43107
95 1 0.373897 0.220545 0.0731807 1.56835 -3.44621
97 1 0.428802 0.222968 0.0234672 0.518309 -3.5458
100 1 0.423422 0.27348 0.0758223 1.31468 -3.4846
454 1 0.372443 0.174449 0.123865 2.4842 -3.47389
494 1 0.382471 0.271156 0.127094 1.24707 -3.51332
135 1 0.37261 0.320795 0.0747318 1.93087 -3.54869
137 1 0.427299 0.323761 0.0279068 1.06919 -3.51502
497 1 0.428098 0.224077 0.12374 0.774473 -3.56432
537 1 0.430553 0.317805 0.124147 1.86556 -3.50235
58 1 0.476826 0.176402 0.0194858 1.18127 -3.50428
98 1 0.472104 0.274906 0.0257549 2.22691 -3.55078
99 1 0.477546 0.219702 0.0739659 1.21961 -3.5291
139 1 0.478125 0.323344 0.0727389 0.55217 -3.48104
458 1 0.479064 0.176726 0.12742 0.476688 -3.49523
498 1 0.477712 0.271947 0.122499 0.56906 -3.55012
64 1 0.526435 0.177235 0.0766141 0.722025 -3.53364
101 1 0.52791 0.219751 0.0202252 1.89472 -3.51559
104 1 0.526873 0.275619 0.0688895 1.45318 -3.53933
141 1 0.528855 0.324718 0.0232897 1.03931 -3.45156
501 1 0.525421 0.227747 0.122447 1.57122 -3.56453
541 1 0.527194 0.324271 0.126415 1.03044 -3.56505
103 1 0.579176 0.221867 0.0766097 0.864119 -3.50268
102 1 0.572996 0.27171 0.0236046 1.05184 -3.48699
462 1 0.576235 0.1738 0.127603 0.665069 -3.53878
504 1 0.527793 0.279446 0.177699 2.06084 -3.5
143 1 0.574101 0.319581 0.075446 2.15828 -3.50254
502 1 0.58478 0.272134 0.121434 3.72128 -3.44744
68 1 0.628372 0.167704 0.0783701 3.0146 -3.58781
62 1 0.577662 0.178409 0.0269938 1.32504 -3.52239
105 1 0.630493 0.222204 0.0308861 2.47549 -3.4989
108 1 0.627383 0.274767 0.0738513 0.554938 -3.50654
145 1 0.621086 0.327119 0.0230037 2.52993 -3.51784
505 1 0.628894 0.22677 0.121597 1.14633 -3.50527
545 1 0.627868 0.328029 0.121885 1.37917 -3.51488
66 1 0.674311 0.175168 0.0276182 1.04392 -3.51686
106 1 0.677899 0.272512 0.0235344 0.681354 -3.46188
107 1 0.678538 0.227006 0.0731837 1.14861 -3.47237
147 1 0.677148 0.327963 0.0722753 0.80921 -3.5159
466 1 0.678507 0.180692 0.124398 3.08112 -3.5363
506 1 0.673813 0.282948 0.125705 8.09914 -3.54238
470 1 0.776905 0.178881 0.128614 1.13477 -3.50279
72 1 0.72539 0.178585 0.0759344 1.07487 -3.49726
70 1 0.778178 0.177899 0.0206551 2.11437 -3.47385
76 1 0.821062 0.177719 0.068407 8.42551 -3.45094
109 1 0.728636 0.221796 0.0236228 1.4713 -3.4917
110 1 0.782772 0.27634 0.0314315 2.08137 -3.54742
111 1 0.776237 0.221747 0.0750579 2.63915 -3.49144
112 1 0.724006 0.275243 0.0706408 7.76489 -3.52577
113 1 0.832914 0.230972 0.0282531 2.62597 -3.51506
116 1 0.836005 0.27599 0.0778832 2.61427 -3.49744
149 1 0.727179 0.32598 0.0272196 0.837625 -3.49595
151 1 0.788153 0.330105 0.0788056 3.96745 -3.49092
153 1 0.827089 0.331277 0.0255722 1.57543 -3.53195
509 1 0.731988 0.226306 0.131571 3.33158 -3.52023
510 1 0.782918 0.275065 0.121106 2.36361 -3.52686
513 1 0.830859 0.223681 0.12148 2.58792 -3.5103
549 1 0.735581 0.324261 0.119796 4.72021 -3.52865
553 1 0.831081 0.327279 0.131486 1.17402 -3.54
78 1 0.978998 0.178087 0.0303652 1.62001 -3.45673
74 1 0.882111 0.176782 0.0333623 2.67992 -3.55478
80 1 0.929761 0.178 0.0776315 0.921333 -3.56605
114 1 0.879832 0.282863 0.0194101 2.71985 -3.56276
115 1 0.879762 0.231274 0.0778322 1.8957 -3.47819
117 1 0.924784 0.228724 0.0238619 1.2657 -3.51035
118 1 0.972257 0.273453 0.0210808 1.83629 -3.48517
119 1 0.975251 0.226221 0.0812592 0.877102 -3.54276
120 1 0.924821 0.278188 0.0752355 0.738983 -3.53223
155 1 0.877739 0.329406 0.0783791 0.931403 -3.56635
157 1 0.930059 0.328835 0.0242412 1.11085 -3.55676
159 1 0.974065 0.314102 0.0740769 5.94228 -3.47962
474 1 0.874605 0.177562 0.120536 1.80326 -3.49362
478 1 0.973838 0.174909 0.131609 1.46447 -3.51646
514 1 0.880743 0.283755 0.132647 3.47346 -3.52157
517 1 0.925611 0.230908 0.127552 1.01882 -3.55175
518 1 0.977379 0.276107 0.128923 1.00604 -3.50294
557 1 0.928214 0.324446 0.131332 1.40998 -3.45228
122 1 0.0759023 0.377535 0.0241676 2.20902 -3.47382
124 1 0.0248801 0.376784 0.0732486 1.19753 -3.45201
128 1 0.12972 0.373758 0.0737972 1.73847 -3.50852
161 1 0.0231947 0.422463 0.0291483 0.948163 -3.39903
162 1 0.0704245 0.480049 0.0307118 1.79505 -3.44837
163 1 0.0776735 0.426454 0.0710065 0.989714 -3.47353
164 1 0.0268379 0.472076 0.0721563 2.92371 -3.41562
165 1 0.125241 0.421032 0.0247525 1.54445 -3.48809
168 1 0.121754 0.472015 0.0721146 2.51196 -3.49755
522 1 0.0796242 0.376276 0.121533 1.65695 -3.50608
561 1 0.0263442 0.43066 0.126277 1.29868 -3.57938
562 1 0.079797 0.475574 0.125116 1.53524 -3.52034
565 1 0.126577 0.428166 0.121644 0.885592 -3.5274
126 1 0.178518 0.373344 0.0236621 1.90025 -3.52384
130 1 0.276739 0.36831 0.0303107 2.09971 -3.52778
132 1 0.226638 0.372975 0.0878863 7.5985 -3.50156
166 1 0.174834 0.471864 0.0240694 1.41432 -3.55028
167 1 0.180483 0.429896 0.0770163 2.55008 -3.51447
169 1 0.231057 0.415618 0.0347696 7.81101 -3.49766
170 1 0.273097 0.470768 0.02742 1.83922 -3.47224
172 1 0.227561 0.479137 0.0728896 2.67247 -3.50753
526 1 0.175316 0.375738 0.121645 2.01371 -3.4383
530 1 0.280587 0.373768 0.121845 2.65211 -3.47811
566 1 0.17316 0.478261 0.122086 1.33417 -3.48433
569 1 0.226337 0.436066 0.126303 6.62427 -3.49641
570 1 0.273405 0.477053 0.129274 1.13944 -3.44836
171 1 0.274473 0.429331 0.0814467 2.70186 -3.4559
136 1 0.327869 0.375056 0.0737651 1.15028 -3.51585
173 1 0.325524 0.425212 0.0210551 1.20754 -3.54011
176 1 0.322293 0.476809 0.0734751 0.273441 -3.56218
573 1 0.324866 0.425333 0.120353 1.06383 -3.50517
134 1 0.378587 0.376623 0.0258778 0.63355 -3.55559
140 1 0.430346 0.375424 0.0735426 1.05261 -3.53959
174 1 0.372535 0.473449 0.0203508 1.18277 -3.5352
175 1 0.372496 0.428883 0.0756281 1.291 -3.53395
534 1 0.375902 0.368308 0.123111 1.94484 -3.5295
574 1 0.368601 0.479434 0.12299 1.30114 -3.55326
177 1 0.426164 0.427634 0.0289017 1.4094 -3.5488
180 1 0.422986 0.483583 0.072314 6.72458 -3.48385
577 1 0.428983 0.429242 0.122147 1.53765 -3.51726
138 1 0.48091 0.368827 0.0280028 2.14824 -3.46442
178 1 0.48082 0.47644 0.0252817 3.86983 -3.4972
179 1 0.478842 0.425491 0.0728565 0.707536 -3.49714
538 1 0.479425 0.379763 0.123176 0.723121 -3.5193
578 1 0.471784 0.47545 0.118829 1.49222 -3.46922
144 1 0.528688 0.374803 0.0719025 0.617439 -3.53265
181 1 0.524194 0.42296 0.0227463 0.755254 -3.50866
184 1 0.52459 0.477206 0.0707074 0.925595 -3.5239
581 1 0.527508 0.433933 0.123453 2.66387 -3.55375
183 1 0.5751 0.426229 0.0729685 0.767746 -3.50324
542 1 0.576609 0.373031 0.119775 1.52591 -3.52346
142 1 0.574065 0.373161 0.0249037 0.867306 -3.52974
182 1 0.574452 0.471191 0.0278197 1.85897 -3.5022
148 1 0.627152 0.376457 0.068625 2.5761 -3.50354
185 1 0.626008 0.418036 0.0181099 2.91865 -3.44723
188 1 0.625522 0.466052 0.0750881 2.42566 -3.52387
582 1 0.571172 0.4826 0.126622 3.08146 -3.46532
585 1 0.623823 0.421794 0.129344 1.62064 -3.53877
187 1 0.679099 0.416297 0.0794149 3.22619 -3.49512
546 1 0.674055 0.368825 0.128857 2.67843 -3.50062
146 1 0.682298 0.37469 0.0249024 2.7823 -3.51414
186 1 0.67097 0.469283 0.0296977 2.06529 -3.55599
586 1 0.676997 0.469317 0.124194 0.793127 -3.51077
150 1 0.777877 0.376984 0.0276383 1.17901 -3.47109
152 1 0.731225 0.378093 0.0771229 1.66416 -3.51472
156 1 0.831438 0.381725 0.0815063 2.45759 -3.5451
189 1 0.722908 0.430753 0.0186873 5.10627 -3.52173
190 1 0.775053 0.483654 0.0309135 7.33849 -3.49402
191 1 0.780306 0.425747 0.0784679 2.23285 -3.46752
192 1 0.725872 0.467165 0.0750831 2.45955 -3.49833
193 1 0.828033 0.418771 0.0219506 7.68537 -3.51729
196 1 0.824815 0.473867 0.0724476 2.22895 -3.54558
550 1 0.778918 0.375545 0.128247 0.55338 -3.4837
589 1 0.724014 0.419053 0.1266 1.42844 -3.44249
590 1 0.775045 0.469926 0.127478 1.78486 -3.45949
593 1 0.818323 0.431437 0.127575 4.06394 -3.36854
154 1 0.878727 0.378851 0.0224676 1.61508 -3.52346
158 1 0.97616 0.375428 0.0326132 1.99475 -3.48704
160 1 0.930116 0.373952 0.0826996 1.69246 -3.47192
194 1 0.87959 0.478149 0.0336906 2.78427 -3.42149
195 1 0.879151 0.429693 0.076904 1.69284 -3.42531
197 1 0.930794 0.428577 0.0353122 2.85216 -3.5557
198 1 0.974925 0.476112 0.0316545 1.00312 -3.56169
199 1 0.979011 0.421055 0.0816238 2.65941 -3.44417
200 1 0.9232 0.484519 0.0862041 4.31413 -3.51031
554 1 0.882007 0.381895 0.124852 4.3721 -3.51002
558 1 0.968585 0.375008 0.13089 3.24958 -3.42788
594 1 0.869387 0.478628 0.12002 7.03315 -3.541
597 1 0.931038 0.427844 0.133033 4.5259 -3.50908
598 1 0.97568 0.483515 0.12757 2.1277 -3.5435
201 1 0.0231244 0.528707 0.0284885 0.959778 -3.51633
202 1 0.0737034 0.576776 0.0211538 0.865252 -3.4744
203 1 0.0733331 0.53152 0.0769786 1.39491 -3.54256
204 1 0.0208794 0.581252 0.0772878 1.85987 -3.50416
205 1 0.121471 0.532505 0.0241775 1.97054 -3.52524
208 1 0.115771 0.583547 0.0770658 3.96854 -3.51656
241 1 0.0284816 0.623111 0.0219481 3.03376 -3.54981
243 1 0.0751115 0.633893 0.0740222 1.83684 -3.4689
245 1 0.124648 0.623318 0.0172886 2.17032 -3.47594
601 1 0.0280324 0.52305 0.118909 6.36014 -3.48701
602 1 0.0667931 0.586531 0.128851 9.08859 -3.53734
605 1 0.128342 0.529434 0.122065 2.59626 -3.51834
641 1 0.01937 0.634436 0.129137 2.52396 -3.47793
645 1 0.124637 0.630947 0.121932 1.12779 -3.4625
206 1 0.173161 0.577473 0.0232931 0.593254 -3.55577
207 1 0.167609 0.526401 0.0760545 2.0946 -3.48809
209 1 0.224468 0.525654 0.0190738 6.17139 -3.49837
210 1 0.277212 0.579777 0.0238063 1.47777 -3.47323
211 1 0.270384 0.53041 0.0738307 1.60225 -3.55428
212 1 0.219756 0.574416 0.0768582 1.06156 -3.5459
247 1 0.172856 0.628678 0.0744973 0.755816 -3.49723
249 1 0.221599 0.622925 0.0260119 1.50763 -3.49423
251 1 0.264531 0.622918 0.0757346 3.45804 -3.53249
606 1 0.171617 0.582053 0.122448 2.18138 -3.53805
609 1 0.219466 0.523774 0.132039 1.84168 -3.51212
610 1 0.26553 0.574534 0.127752 1.66363 -3.54107
649 1 0.221421 0.625439 0.133797 1.56861 -3.53858
213 1 0.323703 0.530887 0.0245597 1.32247 -3.52337
216 1 0.326812 0.577477 0.0742872 1.9925 -3.51044
253 1 0.324219 0.632096 0.0222831 7.1923 -3.53591
613 1 0.321064 0.531193 0.127329 1.48638 -3.56977
653 1 0.317137 0.620107 0.129973 2.68013 -3.54573
214 1 0.381679 0.574297 0.0217523 2.89689 -3.47474
215 1 0.370935 0.52634 0.0705284 0.790874 -3.49428
217 1 0.420469 0.52024 0.0177789 2.92329 -3.38605
220 1 0.421868 0.568834 0.0700469 7.18772 -3.4625
255 1 0.372904 0.630551 0.0786031 3.03407 -3.54577
614 1 0.370363 0.573144 0.122011 1.38348 -3.46746
617 1 0.415575 0.526549 0.123984 1.99648 -3.4998
657 1 0.424174 0.626747 0.122449 0.7667 -3.51571
257 1 0.427297 0.622585 0.0220694 1.42624 -3.51232
218 1 0.466058 0.566135 0.0241901 8.13718 -3.48662
219 1 0.46741 0.528545 0.0771437 4.0303 -3.4085
259 1 0.470642 0.63507 0.0773599 4.55965 -3.5022
618 1 0.477767 0.578039 0.121092 2.56963 -3.51579
221 1 0.520205 0.530872 0.0188134 3.92318 -3.51411
224 1 0.524253 0.57915 0.0723789 1.49208 -3.53404
261 1 0.523179 0.632704 0.0263725 6.43234 -3.53894
621 1 0.522382 0.529457 0.120283 1.22276 -3.51581
661 1 0.527689 0.627807 0.122756 0.821952 -3.51309
222 1 0.573174 0.574876 0.0199901 1.90154 -3.56268
223 1 0.570507 0.525649 0.0772556 1.61192 -3.48512
622 1 0.572183 0.574742 0.123899 0.586701 -3.50328
263 1 0.573442 0.628423 0.0797398 1.58493 -3.52119
225 1 0.616815 0.517132 0.0234675 2.54052 -3.51622
228 1 0.62103 0.57455 0.0708924 1.11804 -3.5296
265 1 0.614126 0.630328 0.0248328 5.49989 -3.50507
625 1 0.622376 0.521 0.118311 2.29604 -3.51144
665 1 0.623226 0.621335 0.119916 1.73412 -3.45465
267 1 0.671726 0.62153 0.0712143 1.53565 -3.53879
226 1 0.670563 0.568893 0.0303723 1.5532 -3.44367
227 1 0.666046 0.520654 0.0774958 2.67669 -3.46877
626 1 0.673781 0.576321 0.126809 2.24973 -3.53727
229 1 0.719411 0.520848 0.0319913 1.91706 -3.53146
230 1 0.772541 0.572933 0.0324006 2.74583 -3.51843
231 1 0.775058 0.525887 0.0793845 1.66498 -3.3953
232 1 0.719385 0.570859 0.0762965 1.24447 -3.47857
233 1 0.825149 0.529033 0.0286977 1.41282 -3.50755
236 1 0.815883 0.584159 0.0770258 4.4891 -3.45392
269 1 0.725082 0.623375 0.0279542 1.46853 -3.52035
271 1 0.771666 0.63191 0.071407 1.99071 -3.467
273 1 0.81781 0.627839 0.0237638 1.80132 -3.46895
629 1 0.724887 0.520542 0.116802 3.5091 -3.52097
630 1 0.771585 0.579331 0.1224 0.865554 -3.47725
633 1 0.816267 0.532467 0.127069 4.12169 -3.51812
669 1 0.725471 0.621055 0.124651 2.13072 -3.50658
673 1 0.823896 0.634912 0.121238 4.03042 -3.46617
234 1 0.865419 0.585119 0.0254934 6.25595 -3.39723
235 1 0.875041 0.533967 0.0712025 7.04058 -3.45848
237 1 0.928651 0.525553 0.0296358 2.41335 -3.53644
238 1 0.978172 0.580954 0.025404 2.86638 -3.49516
239 1 0.978992 0.534192 0.0807729 2.76214 -3.506
240 1 0.926253 0.576111 0.0815653 1.63617 -3.48407
275 1 0.872013 0.622044 0.0784658 2.79782 -3.52724
277 1 0.923133 0.624186 0.0305971 2.56716 -3.51443
279 1 0.971364 0.629462 0.0769137 0.686963 -3.50448
634 1 0.872784 0.56729 0.127301 6.22136 -3.43086
637 1 0.924561 0.533933 0.133691 1.9273 -3.43026
638 1 0.977804 0.583006 0.133948 3.44673 -3.47822
677 1 0.922691 0.623359 0.129171 1.82327 -3.56112
242 1 0.0832193 0.670694 0.0226321 4.82677 -3.41282
244 1 0.0189832 0.677966 0.0726979 1.78063 -3.5432
248 1 0.131273 0.674452 0.0730339 1.37547 -3.48708
281 1 0.0200239 0.726111 0.0251113 0.874873 -3.47084
282 1 0.0738079 0.773596 0.028557 1.40117 -3.48024
283 1 0.076535 0.721548 0.0752614 6.42852 -3.5278
284 1 0.0168937 0.780847 0.0681032 7.78128 -3.51463
285 1 0.127413 0.726791 0.0286891 0.796763 -3.53116
288 1 0.124504 0.779935 0.0775561 1.34163 -3.49054
321 1 0.0271333 0.835179 0.0268088 7.58482 -3.51411
323 1 0.0785505 0.828134 0.0731449 1.3894 -3.52039
325 1 0.127483 0.824509 0.0265927 0.639104 -3.56203
642 1 0.0759714 0.67897 0.123657 0.81967 -3.44838
681 1 0.0231535 0.730398 0.120524 0.636059 -3.51329
682 1 0.0713631 0.778523 0.124382 1.19127 -3.51021
685 1 0.131438 0.726973 0.125325 1.5997 -3.52554
721 1 0.0217979 0.826799 0.122309 1.56687 -3.45238
725 1 0.124805 0.825547 0.125063 0.872111 -3.47596
246 1 0.180455 0.6746 0.0213334 1.78829 -3.50718
250 1 0.272111 0.672415 0.0227685 1.2745 -3.5157
252 1 0.225365 0.674665 0.079628 0.686387 -3.5143
286 1 0.174198 0.77378 0.0298184 1.50062 -3.56753
287 1 0.180065 0.720435 0.0784366 2.38644 -3.56434
289 1 0.22733 0.724695 0.0195507 2.5393 -3.51785
290 1 0.272544 0.772528 0.0252257 0.61036 -3.54537
291 1 0.270504 0.715241 0.0787571 2.98178 -3.4498
292 1 0.225839 0.772302 0.0733001 0.988851 -3.56301
327 1 0.176983 0.830452 0.0750375 1.49733 -3.47152
331 1 0.276337 0.826782 0.0743352 1.45025 -3.46793
646 1 0.177438 0.673254 0.131421 2.08634 -3.55326
650 1 0.269678 0.672093 0.129506 0.810843 -3.48561
686 1 0.177948 0.779097 0.118968 1.9551 -3.52555
689 1 0.227232 0.725659 0.128596 0.665307 -3.45722
690 1 0.270451 0.772425 0.122761 1.89056 -3.51367
729 1 0.226151 0.824593 0.124721 0.91142 -3.51835
329 1 0.220874 0.828921 0.0310143 3.33553 -3.50229
256 1 0.319498 0.670826 0.0809645 5.63193 -3.4906
293 1 0.318427 0.719745 0.0267361 2.55418 -3.50753
296 1 0.320837 0.770907 0.0712594 1.1997 -3.52278
333 1 0.323345 0.828841 0.0243186 1.00524 -3.51683
693 1 0.31515 0.72333 0.121451 3.67182 -3.44768
733 1 0.321557 0.822676 0.123289 0.831274 -3.53067
254 1 0.380619 0.674247 0.0197408 4.44478 -3.53232
294 1 0.367337 0.776008 0.0206025 1.51372 -3.48837
295 1 0.369357 0.72764 0.0684774 2.57921 -3.55454
335 1 0.368716 0.821901 0.0784168 2.30421 -3.57783
654 1 0.364853 0.676639 0.127947 3.88639 -3.48769
694 1 0.373484 0.769969 0.124899 1.64343 -3.489
697 1 0.423555 0.722801 0.121459 1.60612 -3.55321
297 1 0.421031 0.731881 0.0220536 1.65986 -3.48983
260 1 0.423435 0.674336 0.0710623 2.02315 -3.46398
300 1 0.422229 0.779205 0.0755082 0.767741 -3.55398
737 1 0.418702 0.829459 0.125124 0.7198 -3.51225
258 1 0.470738 0.676576 0.0240152 0.998321 -3.4791
298 1 0.474896 0.77741 0.0253238 1.15283 -3.53915
299 1 0.470976 0.727404 0.0771296 1.21181 -3.55346
658 1 0.478887 0.681396 0.128488 3.37403 -3.44047
698 1 0.474721 0.7826 0.125644 1.49468 -3.47947
264 1 0.522874 0.679767 0.0748485 0.631501 -3.51019
301 1 0.520015 0.723857 0.023859 1.73928 -3.51826
304 1 0.527827 0.780784 0.0748436 2.33033 -3.5793
341 1 0.52522 0.826021 0.0205226 1.89997 -3.53439
701 1 0.520139 0.729848 0.123282 1.61271 -3.48754
741 1 0.518557 0.827144 0.126589 1.17439 -3.47409
339 1 0.469678 0.828353 0.0752132 0.367082 -3.47923
337 1 0.419704 0.831441 0.0263093 1.84358 -3.51023
343 1 0.57056 0.834171 0.080801 3.70157 -3.49735
303 1 0.57218 0.730053 0.0754481 0.635982 -3.44314
302 1 0.574534 0.778141 0.0254375 1.29888 -3.49521
262 1 0.573423 0.687023 0.0276038 3.69327 -3.45288
268 1 0.622934 0.672754 0.077077 1.75592 -3.49631
305 1 0.623739 0.72112 0.0297349 1.97124 -3.47848
308 1 0.620712 0.775262 0.0738586 0.615586 -3.49807
345 1 0.619335 0.826323 0.027286 1.16872 -3.54774
662 1 0.572957 0.68089 0.124382 1.20704 -3.51423
702 1 0.574735 0.77668 0.124926 1.15623 -3.54113
705 1 0.619113 0.726971 0.123382 1.45522 -3.49437
266 1 0.681233 0.671223 0.0256829 5.33989 -3.46771
306 1 0.672465 0.774766 0.0285753 0.672099 -3.55199
307 1 0.672687 0.720755 0.0715616 2.25452 -3.49247
666 1 0.680102 0.67697 0.124185 3.38888 -3.52558
706 1 0.667879 0.767094 0.124763 4.12255 -3.52311
745 1 0.623225 0.826781 0.122355 0.951016 -3.50909
347 1 0.671915 0.824613 0.0827642 1.54986 -3.5346
670 1 0.778343 0.679136 0.125154 2.34679 -3.53718
270 1 0.769515 0.675674 0.0208011 1.67874 -3.53806
272 1 0.725419 0.675931 0.0793209 1.83324 -3.51718
276 1 0.822787 0.681731 0.0739971 0.712754 -3.50713
309 1 0.72107 0.725647 0.0276864 1.23045 -3.48771
310 1 0.766592 0.777161 0.0190546 4.0545 -3.52449
311 1 0.772418 0.730318 0.0702503 2.28092 -3.52638
312 1 0.723897 0.769947 0.0795977 2.03255 -3.47662
313 1 0.818217 0.729234 0.0229786 1.78433 -3.47556
316 1 0.819657 0.774053 0.0748285 0.742776 -3.48435
349 1 0.721449 0.820811 0.0339435 2.90325 -3.52149
351 1 0.775062 0.826852 0.0770074 1.9975 -3.47317
709 1 0.727552 0.721563 0.134239 3.2914 -3.49089
710 1 0.778818 0.773714 0.127076 1.95997 -3.51731
713 1 0.822006 0.725655 0.127049 1.15547 -3.5249
353 1 0.819114 0.828425 0.0209546 2.28413 -3.50167
749 1 0.725088 0.82054 0.120781 2.07276 -3.49753
753 1 0.826652 0.818944 0.125157 3.18426 -3.52642
274 1 0.874677 0.680443 0.0296064 2.25477 -3.50902
278 1 0.967312 0.673854 0.0217627 2.01795 -3.50876
280 1 0.918338 0.67603 0.0713045 2.07564 -3.47482
314 1 0.863745 0.775051 0.0271447 3.70705 -3.53101
315 1 0.873524 0.730427 0.0780733 1.28759 -3.43521
317 1 0.920908 0.729139 0.0218699 1.11688 -3.54201
318 1 0.96991 0.781195 0.0235622 0.784882 -3.49452
319 1 0.970864 0.728558 0.0709951 0.467625 -3.56465
320 1 0.924204 0.779337 0.0754858 1.14571 -3.55988
355 1 0.872245 0.825904 0.0770186 0.488396 -3.51722
357 1 0.915669 0.829074 0.0271404 2.1758 -3.51002
674 1 0.875191 0.685299 0.127495 4.08618 -3.52646
678 1 0.970039 0.677348 0.125357 1.24984 -3.50537
714 1 0.875132 0.770992 0.128628 1.46292 -3.51461
717 1 0.926649 0.725162 0.123379 1.63494 -3.50079
718 1 0.972045 0.78568 0.118528 4.5025 -3.5273
757 1 0.919718 0.81834 0.135294 6.08292 -3.49007
359 1 0.972906 0.833718 0.0698031 6.85961 -3.46273
322 1 0.0769445 0.877188 0.0214621 1.13039 -3.3991
324 1 0.0251741 0.878565 0.0816827 6.68427 -3.44907
328 1 0.127739 0.877447 0.0771861 0.797384 -3.52865
361 1 0.0216228 0.916882 0.0247583 6.68498 -3.51788
362 1 0.0779034 0.974669 0.0241115 2.29126 -3.50952
363 1 0.0789425 0.919543 0.0688042 3.36473 -3.44927
364 1 0.019553 0.967805 0.070124 2.91139 -3.45703
365 1 0.125991 0.924837 0.0261311 0.732828 -3.49003
368 1 0.125199 0.97511 0.0695822 1.29943 -3.43258
722 1 0.0760892 0.875849 0.118733 1.47563 -3.4819
761 1 0.0291008 0.931017 0.121722 7.61317 -3.44579
762 1 0.0751135 0.979115 0.118354 1.71642 -3.53683
765 1 0.123701 0.929983 0.12677 0.889119 -3.56979
326 1 0.175649 0.877224 0.0257573 0.445417 -3.50751
330 1 0.271118 0.869992 0.0288852 4.32951 -3.48504
332 1 0.219918 0.882368 0.0772983 2.79612 -3.49731
366 1 0.174251 0.976421 0.0214378 0.767386 -3.4732
367 1 0.174731 0.930724 0.0766635 0.759798 -3.57633
369 1 0.225974 0.930239 0.0252915 1.20092 -3.5247
370 1 0.27188 0.976955 0.026448 1.27768 -3.53942
371 1 0.275064 0.921299 0.0764653 1.85893 -3.57083
372 1 0.228819 0.975736 0.0784245 1.73643 -3.51205
726 1 0.16982 0.876121 0.128483 1.41643 -3.49451
730 1 0.27231 0.869924 0.127108 1.91675 -3.54813
766 1 0.174571 0.978978 0.1278 0.901374 -3.5099
769 1 0.221012 0.927101 0.126421 0.578091 -3.51711
770 1 0.276265 0.974422 0.127352 0.947667 -3.527
732 1 0.219159 0.873372 0.172776 2.17641 -3.51366
336 1 0.324471 0.877433 0.074683 1.01191 -3.53807
373 1 0.319855 0.928953 0.0239414 1.53662 -3.53085
376 1 0.322274 0.979261 0.0735884 1.02438 -3.50232
773 1 0.32072 0.926491 0.128764 0.649703 -3.52333
334 1 0.372334 0.876664 0.0215957 0.906778 -3.53471
340 1 0.419769 0.881716 0.0746953 1.05196 -3.53832
374 1 0.372669 0.973903 0.0245291 0.822964 -3.49947
375 1 0.367997 0.927852 0.0737973 0.677199 -3.50502
380 1 0.42005 0.967605 0.0751355 2.41612 -3.45114
734 1 0.36816 0.87972 0.125832 0.880378 -3.55816
774 1 0.36722 0.974896 0.12256 0.853057 -3.5034
777 1 0.415681 0.927347 0.127563 0.891077 -3.47552
377 1 0.418141 0.931729 0.022645 3.48448 -3.45003
338 1 0.467811 0.870992 0.0257178 2.46936 -3.47621
378 1 0.475583 0.97026 0.0202068 2.43695 -3.51362
379 1 0.475729 0.927498 0.0737558 3.21964 -3.50336
738 1 0.460921 0.879447 0.12555 4.23739 -3.49678
778 1 0.467705 0.97023 0.125985 0.907345 -3.46346
344 1 0.518195 0.876353 0.0748621 0.684349 -3.54957
381 1 0.523103 0.924395 0.017476 1.5067 -3.53673
384 1 0.52239 0.980536 0.0750161 2.07985 -3.47689
781 1 0.516408 0.926494 0.124469 1.05771 -3.51353
742 1 0.566087 0.882351 0.121467 2.05949 -3.37957
342 1 0.575385 0.879854 0.0253984 1.76856 -3.53393
382 1 0.571005 0.976427 0.0179229 2.18938 -3.48092
383 1 0.568578 0.926585 0.0739533 0.859368 -3.52457
782 1 0.567532 0.979929 0.131405 2.61606 -3.55086
348 1 0.621577 0.875882 0.0783766 0.921882 -3.46452
385 1 0.627072 0.923491 0.0250196 1.7748 -3.51119
388 1 0.616884 0.974093 0.0684007 3.4524 -3.51727
785 1 0.61698 0.927608 0.122741 1.01299 -3.51694
346 1 0.674039 0.878481 0.0278744 1.25227 -3.5555
386 1 0.675341 0.972683 0.025815 1.22817 -3.56469
387 1 0.667869 0.923447 0.0785367 1.62 -3.45741
746 1 0.671164 0.877738 0.125338 0.462292 -3.47414
786 1 0.670799 0.97609 0.122631 0.5784 -3.47361
748 1 0.618225 0.880532 0.170308 1.8035 -3.51934
350 1 0.774618 0.874896 0.0326208 1.86239 -3.47725
352 1 0.721913 0.87737 0.0784692 0.89212 -3.53031
356 1 0.818794 0.870621 0.082029 3.09906 -3.50385
389 1 0.729819 0.926444 0.0296951 3.14202 -3.55547
390 1 0.771253 0.978234 0.0287517 1.29171 -3.45
391 1 0.769898 0.936371 0.0846053 6.66404 -3.53724
392 1 0.719081 0.976696 0.0781081 1.43152 -3.46456
393 1 0.82074 0.925676 0.0305173 0.969798 -3.56821
396 1 0.82897 0.97346 0.0814949 2.83344 -3.47927
750 1 0.769809 0.873251 0.125983 1.076 -3.49945
789 1 0.718889 0.925855 0.126858 1.01988 -3.47203
790 1 0.776966 0.981575 0.130999 2.85948 -3.48498
793 1 0.824938 0.922181 0.126388 1.79643 -3.51638
354 1 0.869176 0.874546 0.0261135 0.704467 -3.51337
358 1 0.972433 0.878522 0.0220082 1.4253 -3.49023