ITEM: TIMESTEP
0
ITEM: NUMBER OF ATOMS
4160
ITEM: BOX BOUNDS pp ss ss
1.2488897018906400e+00 7.9731110298109670e+01
-1.5290475470323674e+01 1.5350955970724238e+01
-1.5358572705892016e+01 1.5594898534476112e+01
ITEM: ATOMS id type xs ys zs c_csym
1 2 0.00904745 0.216022 0.0989303 18.7844
2 1 0.062076 0.210862 0.0787277 33.1376
3 1 0.105845 0.207774 0.0852719 26.6169
4 1 0.16201 0.210608 0.0745506 34.269
5 1 0.21341 0.223366 0.0724357 28.4054
6 2 0.263749 0.205329 0.0883139 26.3443
7 1 0.318623 0.167105 0.120612 22.8343
8 1 0.37004 0.213233 0.0603554 46.5887
9 1 0.411101 0.215994 0.0746464 26.765
10 1 0.463312 0.205694 0.0779929 33.6195
11 1 0.514797 0.208495 0.0760094 33.9045
12 1 0.562768 0.207497 0.0788678 34.7806
13 1 0.61003 0.206449 0.0761687 37.5406
14 1 0.658606 0.211383 0.0723959 33.5403
15 1 0.716384 0.214195 0.0772286 31.1093
16 1 0.75652 0.202622 0.090467 22.21
17 1 0.809657 0.224167 0.0692471 29.293
18 1 0.863163 0.220356 0.0768455 29.1335
19 2 0.914364 0.214386 0.102635 20.5905
20 2 0.962782 0.21835 0.0928054 24.6335
21 1 0.0308278 0.328863 0.00935587 37.3201
22 1 0.0353559 0.269649 0.0789434 20.0366
23 1 0.0107539 0.337899 0.0789053 5.31387
24 1 0.0839612 0.333334 0.0142713 35.861
25 1 0.0867608 0.27246 0.0829276 17.2117
26 1 0.0618611 0.335056 0.0854866 6.43775
27 1 0.133119 0.329629 0.0174886 29.361
28 1 0.132462 0.26598 0.0785304 17.3256
29 1 0.109581 0.338729 0.0835752 6.70153
30 1 0.187431 0.340222 0.01116 34.3254
31 1 0.186565 0.276998 0.0787724 17.3649
32 1 0.159905 0.330703 0.0695274 6.58833
33 2 0.237213 0.350549 0.020739 22.045
34 2 0.23707 0.276034 0.0759104 13.097
35 1 0.213497 0.33348 0.0737893 5.30506
36 1 0.283786 0.337135 0.00773826 37.1514
37 1 0.286389 0.265343 0.0816765 18.7483
38 1 0.260488 0.331965 0.0771789 5.33181
39 1 0.337613 0.330216 0.0108196 35.7334
40 1 0.338496 0.25693 0.0780083 12.9806
41 1 0.311413 0.334691 0.0708084 6.7198
42 1 0.394799 0.344648 0.000468474 37.9116
43 1 0.390287 0.281942 0.069716 10.6294
44 1 0.360988 0.332249 0.074483 6.00659
45 1 0.435295 0.332089 0.0102774 30.3219
46 1 0.437611 0.277485 0.0788576 17.2479
47 1 0.414919 0.340665 0.0803438 6.19765
48 1 0.487473 0.349623 0.0142625 29.676
49 1 0.489018 0.274149 0.0707371 14.1675
50 1 0.462854 0.343777 0.0792562 7.04865
51 1 0.542377 0.334125 0.011016 32.5524
52 1 0.539132 0.27192 0.0759644 13.8408
53 1 0.512788 0.337884 0.0794828 6.94365
54 1 0.583167 0.333784 0.013875 28.2181
55 1 0.586371 0.273586 0.0813881 12.7111
56 1 0.564759 0.340613 0.0802893 5.47059
57 1 0.634992 0.343453 0.0144518 31.6005
58 1 0.633704 0.275366 0.0762729 18.4371
59 1 0.610005 0.339201 0.0781823 5.71007
60 1 0.691138 0.358298 0.00444956 29.684
61 1 0.687179 0.277425 0.0629697 24.0902
62 1 0.660831 0.338445 0.0736235 7.07972
63 1 0.737325 0.363599 0.000156971 36.0077
64 1 0.738867 0.277236 0.0796331 14.2801
65 1 0.712354 0.343419 0.0752858 6.70512
66 1 0.780015 0.359794 0.0015469 30.155
67 1 0.777637 0.277204 0.0624806 14.4468
68 1 0.759399 0.351712 0.0730341 6.29042
69 1 0.83793 0.326638 0.0131123 29.9569
70 1 0.837866 0.280103 0.0886495 13.0418
71 1 0.805789 0.322385 0.0600648 13.0124
72 1 0.888479 0.330458 0.014046 36.1595
73 1 0.891749 0.269544 0.0820251 15.8462
74 1 0.863913 0.330169 0.0846321 5.26912
75 1 0.940313 0.343274 0.0206543 26.4289
76 1 0.93827 0.269429 0.0813055 12.5073
77 1 0.915781 0.338693 0.0798934 6.13353
78 1 0.985305 0.330674 0.016233 34.8037
79 1 0.985011 0.27694 0.0837092 17.6635
80 1 0.961177 0.345231 0.0911825 6.51237
81 1 0.0118034 0.403478 0.0142709 19.0264
82 1 0.0376162 0.470509 0.0157946 17.9986
83 1 0.0367118 0.396806 0.0766872 1.42809
84 1 0.0114661 0.468099 0.0799367 0.76713
85 1 0.0591722 0.395494 0.00868985 22.3625
86 1 0.0810921 0.471979 0.0121525 11.3853
87 1 0.0838995 0.400238 0.0805568 0.608232
88 1 0.0610757 0.467495 0.0842782 1.2369
89 1 0.108795 0.397271 0.0104086 23.3637
90 1 0.133996 0.46614 0.0110297 22.8552
91 1 0.134732 0.402273 0.0811877 0.717549
92 1 0.109444 0.464156 0.0791802 0.72182
93 1 0.159089 0.403352 0.0127525 17.3241
94 1 0.187676 0.454705 0.0062988 18.4377
95 1 0.186639 0.401023 0.0758692 0.329259
96 1 0.161694 0.466686 0.0757564 0.456747
97 2 0.212522 0.400577 0.0210248 14.9168
98 2 0.237474 0.468662 0.0230028 15.4063
99 1 0.237009 0.406345 0.0741285 1.37492
100 1 0.212268 0.468802 0.0778943 0.65276
101 1 0.260318 0.404211 0.00426411 23.7418
102 1 0.288811 0.465297 0.0182597 16.6901
103 1 0.286478 0.398693 0.0733341 0.478652
104 1 0.261864 0.467439 0.0741843 0.517665
105 1 0.312394 0.395771 0.0100065 20.3411
106 1 0.339365 0.463335 0.00352966 22.5752
107 1 0.338236 0.402097 0.0714387 0.380781
108 1 0.313765 0.469726 0.073623 0.514729
109 1 0.363843 0.391123 0.0078086 15.2642
110 1 0.38677 0.464993 0.0109701 14.5751
111 1 0.387914 0.39458 0.0728721 2.78274
112 1 0.363582 0.462208 0.0720327 0.761955
113 1 0.418974 0.415113 0.00498764 16.1809
114 2 0.436044 0.476 0.0324682 14.7154
115 1 0.437094 0.40762 0.0817345 1.44089
116 1 0.41236 0.471805 0.0783773 0.939976
117 1 0.457207 0.418957 0.0100559 18.7009
118 1 0.488202 0.464299 0.0114125 16.7162
119 1 0.487102 0.409765 0.0841406 1.40171
120 1 0.462072 0.475394 0.0850662 0.97381
121 1 0.51507 0.403444 0.0119862 19.7278
122 1 0.53773 0.474641 0.0167578 18.1703
123 1 0.539109 0.403482 0.0805536 0.436339
124 1 0.511502 0.467806 0.0843528 0.79824
125 1 0.562509 0.408691 0.0058116 19.218
126 1 0.588291 0.478185 0.0115706 19.7811
127 1 0.587334 0.405485 0.0773785 0.5557
128 1 0.564279 0.467595 0.0768757 0.917496
129 1 0.609728 0.399641 0.00803522 20.0067
130 1 0.637417 0.475134 0.00714214 14.613
131 1 0.636665 0.407177 0.0757835 0.344656
132 1 0.614538 0.473351 0.071977 1.63927
133 1 0.660416 0.405217 0.00735854 18.7018
134 1 0.688534 0.46813 0.00545303 18.2857
135 1 0.688712 0.412266 0.0738502 1.05507
136 1 0.662411 0.474042 0.0723746 0.629718
137 2 0.713671 0.410085 0.0184464 14.8852
138 1 0.737238 0.467373 0.0126017 10.5586
139 1 0.736486 0.409569 0.0794884 0.663287
140 1 0.713597 0.474984 0.0790078 0.811993
141 2 0.760652 0.41501 0.0231864 13.8205
142 1 0.787661 0.458325 0.0101251 13.6051
143 1 0.785857 0.403439 0.0797052 2.08069
144 1 0.76004 0.472855 0.0822959 1.25189
145 1 0.813921 0.400011 0.00753448 16.7968
146 1 0.838497 0.461841 0.0198164 15.7704
147 1 0.835496 0.384732 0.0804696 7.07947
148 1 0.812102 0.46416 0.0760798 0.59463
149 1 0.861999 0.394698 0.0139586 19.1841
150 1 0.886194 0.460191 0.00266713 17.7077
151 1 0.886073 0.402804 0.0781692 1.18711
152 1 0.863172 0.46442 0.075655 1.17653
153 1 0.912729 0.399235 0.0179156 18.4812
154 1 0.936692 0.464699 0.0135508 21.0468
155 2 0.93663 0.404467 0.0826595 0.390376
156 1 0.913401 0.465885 0.0766328 0.990337
157 1 0.961631 0.399918 0.0192832 19.6583
158 1 0.988163 0.469195 0.00718953 23.7155
159 1 0.986424 0.402378 0.0822907 0.724154
160 1 0.96042 0.467429 0.0756699 1.024
161 1 0.0165989 0.537892 0.0116731 18.4326
162 2 0.0365153 0.596742 0.051745 17.2712
163 1 0.0349133 0.525679 0.0863575 3.16718
164 1 0.00957523 0.592507 0.0855721 2.9886
165 1 0.0572509 0.544051 0.0197782 14.5054
166 1 0.0861301 0.603954 0.0207859 19.6906
167 1 0.0861002 0.532917 0.0872674 0.798028
168 1 0.0645209 0.596497 0.0888473 3.3104
169 1 0.110269 0.534988 0.019514 19.0383
170 1 0.136092 0.601354 0.00886535 25.4514
171 1 0.136764 0.533086 0.0781866 0.497523
172 1 0.108309 0.598635 0.0845705 1.2494
173 1 0.162719 0.531955 0.00906715 21.5003
174 1 0.190416 0.600389 0.0150698 20.3527
175 1 0.18664 0.535282 0.0790591 0.911579
176 1 0.16217 0.598781 0.0801113 0.381035
177 1 0.214595 0.529137 0.0115824 20.9797
178 1 0.238827 0.602365 0.0154549 18.7939
179 1 0.237101 0.536268 0.0744131 1.28956
180 1 0.211762 0.595655 0.0801495 0.607493
181 1 0.260985 0.529058 0.0095077 19.2682
182 1 0.287921 0.594582 0.0115609 18.7442
183 1 0.287958 0.537476 0.0792898 0.849189
184 1 0.262189 0.593472 0.084991 2.45171
185 1 0.314185 0.533614 0.010514 21.4328
186 1 0.337847 0.601121 0.0107963 20.0092
187 1 0.337807 0.531227 0.0774626 0.586766
188 1 0.312476 0.595248 0.0795305 0.853994
189 1 0.363746 0.535083 0.00732739 21.5926
190 1 0.387427 0.610119 0.00989521 20.3391
191 1 0.38584 0.533157 0.0698853 1.59311
192 1 0.362895 0.597524 0.0731432 0.972294
193 1 0.413514 0.531921 0.0117108 17.3709
194 1 0.436957 0.601562 0.0239134 18.4149
195 1 0.439862 0.538139 0.0852896 2.07793
196 1 0.410545 0.598766 0.082208 1.40947
197 1 0.460025 0.527526 0.0152793 17.0647
198 1 0.487274 0.599663 0.0202939 20.738
199 1 0.486764 0.536755 0.0869847 1.1292
200 1 0.46285 0.600075 0.0857811 1.28129
201 1 0.511527 0.537601 0.016933 17.8516
202 1 0.539719 0.601487 0.0273198 12.8201
203 1 0.536618 0.532312 0.0789619 1.04491
204 2 0.512071 0.593025 0.0805954 5.79529
205 2 0.563139 0.537294 0.0242209 17.0761
206 2 0.589398 0.604877 0.0314454 13.1542
207 1 0.589031 0.536797 0.0807392 0.571663
208 1 0.565982 0.595715 0.0808142 2.34046
209 1 0.613276 0.553694 0.0109781 16.948
210 2 0.63883 0.607119 0.0297721 13.1206
211 1 0.638765 0.538043 0.0743752 1.32311
212 1 0.613827 0.600207 0.086757 1.3097
213 1 0.660642 0.545096 0.0094758 20.1627
214 1 0.686942 0.60816 0.0176801 20.6099
215 1 0.687377 0.535249 0.0731598 1.14465
216 1 0.662369 0.60584 0.0800327 1.07609
217 1 0.712891 0.532929 0.0101993 20.5187
218 1 0.736603 0.601256 0.0126608 20.5951
219 1 0.735676 0.537266 0.0783778 0.726225
220 1 0.709314 0.59909 0.0801442 1.73642
221 1 0.764242 0.532314 0.00830959 13.4396
222 2 0.788442 0.59433 0.0220695 17.3397
223 1 0.786905 0.52889 0.07283 1.44457
224 1 0.763783 0.592645 0.0801862 0.93379
225 1 0.812148 0.536141 0.0116697 19.4373
226 1 0.836565 0.60529 0.0167452 20.37
227 1 0.836914 0.529088 0.0799237 0.337181
228 1 0.810038 0.591227 0.0829938 1.692
229 1 0.859698 0.530597 0.0127909 20.4631
230 1 0.886763 0.600969 0.0241292 19.6903
231 1 0.886276 0.527128 0.081743 0.821036
232 1 0.862994 0.596454 0.0823793 0.54445
233 1 0.908671 0.532046 0.0140383 18.7289
234 1 0.933948 0.603108 0.0201077 18.9444
235 1 0.936925 0.534461 0.0754117 1.30366
236 1 0.910843 0.594524 0.0850225 0.730855
237 1 0.962275 0.539542 0.00819747 14.756
238 1 0.987504 0.603336 0.0139567 22.4107
239 1 0.987633 0.526593 0.0784135 1.01778
240 1 0.963464 0.595466 0.082125 1.13731
241 1 0.0180456 0.6522 0.0201256 28.464
242 1 0.0352763 0.669516 0.0929928 7.83982
243 1 0.00802071 0.727374 0.0770803 17.0578
244 1 0.058995 0.657261 0.0268749 24.6599
245 2 0.0869493 0.662675 0.0813893 6.21957
246 1 0.0646904 0.723463 0.0785214 15.4081
247 1 0.110896 0.663496 0.0172568 33.3327
248 1 0.135161 0.663794 0.0786888 6.35017
249 1 0.110482 0.72819 0.0767232 12.6938
250 1 0.161113 0.663155 0.0201828 31.1089
251 1 0.187357 0.660431 0.0819653 6.82563
252 1 0.161323 0.730786 0.0781907 19.1344
253 2 0.213038 0.65873 0.0298124 22.2237
254 1 0.238245 0.66634 0.0756468 6.73081
255 1 0.213876 0.726435 0.0762016 18.0792
256 1 0.265699 0.669652 0.0141196 30.4657
257 1 0.288348 0.657033 0.0760067 5.55124
258 1 0.267096 0.735938 0.0751496 11.2854
259 1 0.311736 0.665614 0.00284176 40.5298
260 1 0.33505 0.666263 0.0724589 7.01185
261 1 0.309402 0.727569 0.0658649 11.9756
262 1 0.360398 0.670608 0.00773147 39.3588
263 1 0.38395 0.673216 0.0763769 7.09865
264 1 0.357769 0.736206 0.0786432 11.7557
265 1 0.415416 0.673631 0.0307634 23.3909
266 1 0.436433 0.682555 0.0940866 10.6725
267 2 0.409346 0.727569 0.091171 12.2117
268 1 0.45967 0.668698 0.0249995 29.1243
269 1 0.490142 0.662474 0.0780258 6.76455
270 1 0.465871 0.73686 0.0777523 16.4551
271 1 0.515546 0.659926 0.0197855 29.2976
272 1 0.545272 0.685086 0.0711305 12.4057
273 1 0.5124 0.729956 0.0720961 15.1494
274 1 0.570744 0.674512 0.0185613 35.4716
275 1 0.590561 0.663602 0.0890659 5.24897
276 2 0.569371 0.733044 0.0842604 13.6522
277 1 0.612757 0.659155 0.0201228 26.9547
278 1 0.638254 0.673943 0.0794659 6.43622
279 2 0.611325 0.719383 0.0869041 12.2289
280 2 0.661986 0.667211 0.027792 26.3875
281 2 0.687908 0.660466 0.0878254 5.49703
282 1 0.665245 0.719739 0.0823905 14.1887
283 1 0.711321 0.668126 0.0183104 33.3746
284 1 0.738126 0.659897 0.0773641 6.21078
285 1 0.71055 0.72465 0.0841863 12.6216
286 1 0.764624 0.657142 0.0146743 32.8465
287 1 0.78989 0.661382 0.0787729 7.03051
288 1 0.760991 0.726578 0.075228 19.1303
289 2 0.813207 0.659727 0.0251363 26.3296
290 1 0.837169 0.660947 0.0834695 6.79026
291 1 0.81407 0.733437 0.0778954 12.6444
292 1 0.865245 0.668801 0.0256303 26.7077
293 2 0.886294 0.656319 0.0948664 6.60959
294 1 0.864522 0.724481 0.0890093 17.895
295 1 0.906996 0.6741 0.0387296 16.4188
296 1 0.936908 0.664677 0.0862958 6.74202
297 2 0.913824 0.727533 0.0950829 9.79157
298 1 0.960279 0.665017 0.0148742 38.6767
299 1 0.987173 0.664045 0.077547 6.04683
300 1 0.961386 0.735715 0.0844258 12.8914
301 1 0.0363987 0.78712 0.0825431 30.1174
302 1 0.0875969 0.79462 0.0776927 43.2893
303 1 0.134367 0.790218 0.0869285 27.5002
304 1 0.19029 0.788482 0.0761588 34.609
305 1 0.238548 0.800257 0.0812101 38.1883
306 1 0.293987 0.80164 0.0889635 25.722
307 1 0.329695 0.799672 0.0873177 24.3271
308 2 0.38256 0.794375 0.0888225 34.0709
309 1 0.434365 0.783714 0.0999439 19.8503
310 1 0.491647 0.799813 0.0737291 42.9465
311 1 0.543082 0.788631 0.0725519 32.6004
312 1 0.594257 0.784503 0.0884363 22.5964
313 1 0.632872 0.773063 0.0887083 21.0083
314 1 0.68962 0.797061 0.0842698 37.0474
315 1 0.738923 0.796279 0.0850829 33.6112
316 1 0.785571 0.792544 0.0766041 37.2172
317 1 0.843171 0.789935 0.0795798 31.3767
318 1 0.888201 0.786243 0.0882986 24.963
319 2 0.938853 0.795131 0.097711 24.3175
320 1 0.986813 0.800007 0.0804174 42.5818
321 1 0.0107587 0.080006 0.212585 35.1884
322 2 0.0637051 0.0911881 0.211885 26.2672
323 2 0.108147 0.0958366 0.205089 21.413
324 1 0.158758 0.0730512 0.204238 38.9086
325 1 0.212 0.0778427 0.208325 32.0084
326 1 0.26615 0.0966915 0.202858 17.689
327 1 0.311286 0.0911917 0.199001 27.8353
328 1 0.361249 0.087649 0.201914 35.1688
329 1 0.412337 0.085719 0.195366 34.8274
330 2 0.462638 0.0944794 0.200838 24.2148
331 1 0.511193 0.0904109 0.206317 27.7653
332 1 0.559324 0.0823906 0.207394 33.9579
333 1 0.611474 0.0736698 0.201275 44.246
334 1 0.659881 0.0805562 0.203271 29.705
335 1 0.714712 0.0831515 0.200375 34.3404
336 1 0.761842 0.0836377 0.202369 35.9072
337 1 0.810306 0.0774415 0.203781 37.1151
338 1 0.865086 0.0773303 0.19955 40.6873
339 1 0.915059 0.0796823 0.20412 39.7478
340 1 0.963576 0.0835273 0.209517 34.9285
341 1 0.0121418 0.152468 0.153614 22.2492
342 1 0.0365267 0.209698 0.144844 7.06497
343 1 0.0415217 0.152016 0.215664 6.58997
344 1 0.0136382 0.220196 0.21613 2.19643
345 1 0.0638069 0.14401 0.145276 24.4757
346 1 0.0867349 0.217159 0.15205 5.89824
347 1 0.0848731 0.148573 0.212984 5.91242
348 1 0.0607616 0.214763 0.221663 3.4116
349 1 0.106839 0.14269 0.138519 30.4783
350 1 0.13315 0.210025 0.144697 6.36333
351 1 0.133189 0.147868 0.206119 6.95649
352 1 0.110039 0.218147 0.21091 1.26638
353 1 0.157684 0.14083 0.138382 27.3955
354 1 0.186149 0.20589 0.139337 7.13535
355 1 0.185479 0.140483 0.197848 7.21093
356 1 0.158913 0.208774 0.207718 0.702234
357 1 0.214753 0.1414 0.129663 24.3232
358 1 0.238188 0.215375 0.138457 5.07099
359 1 0.237977 0.14445 0.207585 6.42643
360 1 0.211308 0.200524 0.204449 1.31984
361 1 0.25423 0.1395 0.128885 27.1303
362 1 0.28583 0.202206 0.143728 8.15662
363 2 0.287412 0.150144 0.213117 6.98623
364 1 0.262166 0.202755 0.203686 1.8567
365 1 0.28916 0.117137 0.136171 35.3475
366 2 0.337265 0.220884 0.152928 12.6074
367 1 0.336851 0.158064 0.202202 7.41047
368 1 0.310662 0.207528 0.207026 3.16102
369 1 0.358548 0.163805 0.133393 15.6574
370 1 0.388815 0.219291 0.140354 7.11286
371 1 0.385642 0.149845 0.198278 6.29547
372 1 0.362693 0.216312 0.205375 0.578467
373 1 0.4113 0.147261 0.130527 30.8779
374 1 0.438086 0.211408 0.136756 6.50343
375 1 0.438226 0.147425 0.1985 6.49154
376 1 0.412365 0.216062 0.195075 0.984816
377 1 0.462895 0.140295 0.136022 30.3991
378 1 0.48854 0.211981 0.139534 5.82098
379 1 0.486904 0.146287 0.204328 6.19677
380 1 0.463702 0.215779 0.200594 1.01997
381 1 0.511743 0.140036 0.134496 33.2863
382 1 0.536365 0.20818 0.144489 6.12262
383 1 0.534743 0.149482 0.211982 6.59082
384 1 0.510018 0.210441 0.209556 0.797846
385 1 0.562037 0.145888 0.141237 27.8703
386 1 0.586101 0.207971 0.144638 5.90337
387 1 0.586779 0.143926 0.206648 6.53492
388 1 0.560744 0.2109 0.209575 0.5877
389 1 0.610115 0.144395 0.141731 27.5117
390 1 0.635167 0.20489 0.143884 6.58824
391 1 0.634744 0.143272 0.202026 6.92799
392 2 0.610826 0.208099 0.202018 0.266644
393 1 0.66191 0.140543 0.1324 34.8819
394 1 0.687547 0.212865 0.131588 5.71468
395 1 0.685953 0.143526 0.198952 6.6114
396 1 0.662618 0.209687 0.198122 0.581198
397 1 0.713854 0.155316 0.138598 19.4541
398 2 0.736486 0.215409 0.144384 5.64991
399 1 0.737098 0.150898 0.204831 6.23044
400 1 0.711599 0.210728 0.20842 0.808239
401 2 0.762761 0.154147 0.156133 17.1624
402 1 0.786551 0.212367 0.137144 7.14499
403 1 0.785858 0.148086 0.203744 6.75537
404 1 0.759779 0.214567 0.207974 0.966574
405 1 0.811968 0.148491 0.141758 27.509
406 1 0.83759 0.208961 0.138832 7.39216
407 1 0.837378 0.144502 0.202388 7.72994
408 1 0.811584 0.217452 0.215086 2.69212
409 1 0.865944 0.14904 0.138264 25.5406
410 1 0.890259 0.216957 0.151259 4.70733
411 1 0.888648 0.147506 0.204254 6.19938
412 1 0.863473 0.218236 0.206159 1.55118
413 1 0.915533 0.148957 0.149946 24.0907
414 1 0.938607 0.210991 0.151443 4.96461
415 1 0.940905 0.148654 0.210622 5.43913
416 2 0.915614 0.207261 0.208801 0.941683
417 1 0.966066 0.149933 0.143978 25.7915
418 1 0.987815 0.21479 0.150496 6.12826
419 1 0.985813 0.152693 0.211205 6.19156
420 2 0.963573 0.215797 0.207963 0.665119
421 1 0.0136031 0.282113 0.147655 1.43764
422 1 0.0377732 0.338098 0.145655 0.57094
423 2 0.0393349 0.274109 0.203576 2.929
424 2 0.0123799 0.341755 0.203022 0.952436
425 1 0.0618773 0.271035 0.149245 1.10789
426 1 0.0864801 0.336442 0.149211 0.696116
427 2 0.0828513 0.276518 0.209979 2.11821
428 1 0.0618436 0.340574 0.205296 1.23324
429 2 0.110967 0.272652 0.145849 0.938273
430 1 0.134395 0.333024 0.142325 0.569018
431 1 0.134208 0.276082 0.204739 1.11609
432 1 0.108589 0.332509 0.209957 1.38431
433 1 0.160364 0.271228 0.140532 0.393557
434 1 0.186722 0.339268 0.138027 0.544681
435 1 0.187738 0.27087 0.201529 0.674973
436 1 0.163174 0.335476 0.203847 0.615842
437 1 0.214303 0.276961 0.141916 1.46981
438 1 0.238841 0.329748 0.141791 1.73519
439 1 0.237212 0.267831 0.206565 0.961131
440 1 0.21423 0.334785 0.206755 0.807598
441 2 0.263832 0.272343 0.150123 2.65642
442 1 0.286026 0.335734 0.137325 0.59094
443 1 0.287454 0.275863 0.204579 0.632763
444 1 0.262008 0.34081 0.203034 0.923817
445 1 0.31276 0.26927 0.134419 5.42369
446 1 0.337556 0.339639 0.143013 0.820816
447 1 0.335708 0.278961 0.206258 1.11257
448 1 0.31214 0.344082 0.200321 0.984197
449 1 0.362433 0.275612 0.140318 1.47685
450 1 0.389165 0.336858 0.140806 0.904637
451 2 0.386594 0.277655 0.203814 0.542208
452 1 0.36429 0.340309 0.204789 0.553327
453 2 0.414326 0.276811 0.135633 0.713733
454 1 0.437286 0.337024 0.141829 0.622973
455 1 0.436596 0.272024 0.202464 0.84764
456 1 0.412423 0.336867 0.199398 1.06016
457 1 0.464395 0.274903 0.141276 0.597984
458 1 0.487415 0.334189 0.144395 1.48228
459 2 0.487262 0.274736 0.205605 0.151146
460 1 0.46311 0.338377 0.202881 0.612964
461 1 0.512258 0.276093 0.146427 0.829841
462 1 0.538452 0.337889 0.143679 0.316522
463 1 0.537255 0.277896 0.204993 0.804526
464 1 0.511075 0.337432 0.211991 1.31523
465 1 0.561977 0.275531 0.147278 0.349779
466 1 0.58764 0.340398 0.149305 1.137
467 1 0.587375 0.276771 0.209755 0.702092
468 2 0.562327 0.341073 0.208953 0.182789
469 1 0.609357 0.272678 0.143644 1.08518
470 1 0.638 0.343267 0.136892 0.829615
471 1 0.636331 0.273068 0.198609 0.909334
472 1 0.614865 0.342847 0.198734 2.73847
473 1 0.660327 0.277858 0.138404 0.812147
474 1 0.686747 0.341784 0.140302 0.464249
475 1 0.686535 0.276816 0.198357 1.3099
476 1 0.661771 0.340268 0.205587 0.298619
477 1 0.711426 0.273829 0.138938 0.979047
478 1 0.735999 0.342183 0.144815 0.200044
479 1 0.736508 0.277012 0.20758 0.320981
480 1 0.712907 0.337002 0.217373 2.89001
481 1 0.761427 0.276545 0.141285 1.79443
482 1 0.787011 0.339309 0.138872 1.80346
483 1 0.785817 0.278019 0.209882 0.41155
484 1 0.760119 0.34097 0.215508 0.940852
485 1 0.812784 0.277138 0.144384 5.70012
486 2 0.839209 0.33475 0.150053 2.09691
487 1 0.837891 0.277306 0.208089 0.597264
488 1 0.813335 0.334721 0.206865 0.950486
489 1 0.864206 0.277985 0.149403 0.636465
490 1 0.889022 0.337593 0.150013 0.568894
491 2 0.888081 0.27548 0.209976 0.607241
492 1 0.864041 0.334926 0.212845 0.417261
493 1 0.913199 0.272523 0.15296 1.39845
494 1 0.935996 0.344185 0.148119 1.15852
495 1 0.937441 0.276187 0.210193 0.471038
496 1 0.91189 0.341918 0.212547 0.747319
497 1 0.961758 0.275033 0.147313 0.521562
498 2 0.987268 0.341088 0.144938 0.343209
499 1 0.987181 0.281159 0.207235 0.545089
500 1 0.962322 0.344662 0.202555 0.861325
501 1 0.0117302 0.394966 0.140654 1.40059
502 1 0.0339981 0.46059 0.146021 1.14436
503 1 0.0360206 0.40436 0.210398 1.90918
504 2 0.0109439 0.455932 0.206047 1.75091
505 2 0.0599885 0.400482 0.142561 1.10348
506 1 0.0860134 0.453839 0.148854 3.02348
507 2 0.0878051 0.397986 0.210324 0.829255
508 1 0.0623496 0.451278 0.209698 3.64636
509 1 0.11104 0.400587 0.150188 0.929045
510 1 0.135844 0.467243 0.136885 1.4272
511 1 0.137652 0.399167 0.211385 1.07478
512 1 0.111599 0.46384 0.210445 0.465298
513 1 0.160472 0.399218 0.140517 0.412736
514 1 0.187337 0.46713 0.141017 0.200448
515 1 0.186485 0.39953 0.203829 0.357616
516 1 0.160392 0.467634 0.205042 0.497255
517 1 0.213223 0.398307 0.137448 0.60822
518 1 0.238931 0.47078 0.139616 0.6164
519 1 0.238135 0.401737 0.203726 0.322305
520 1 0.212156 0.465936 0.202601 0.417147
521 1 0.262506 0.40696 0.139784 0.757854
522 1 0.287849 0.467912 0.139156 0.308755
523 1 0.288407 0.405414 0.20485 0.151088
524 1 0.263401 0.467762 0.205324 0.391027
525 1 0.311399 0.404893 0.136283 0.52593
526 1 0.338082 0.470656 0.137581 0.50265
527 1 0.339195 0.408608 0.203876 0.620551
528 1 0.314617 0.472017 0.207179 0.327225
529 1 0.364899 0.403875 0.143704 0.972497
530 1 0.386385 0.46884 0.143273 0.609959
531 1 0.38797 0.408428 0.210843 1.13767
532 1 0.363422 0.471083 0.211006 0.684913
533 1 0.411678 0.40603 0.137844 1.08002
534 1 0.438201 0.475975 0.147223 0.680031
535 1 0.436224 0.406509 0.205105 0.669396
536 1 0.412872 0.472611 0.207202 0.184877
537 1 0.462639 0.412004 0.144949 0.795925
538 2 0.488564 0.468726 0.14489 0.750467
539 1 0.486798 0.413608 0.203798 2.13808
540 1 0.462419 0.476079 0.20326 1.36197
541 1 0.510987 0.399639 0.145639 1.14613
542 1 0.537676 0.467072 0.144709 0.211491
543 1 0.53785 0.402083 0.20712 0.438626
544 1 0.512523 0.470125 0.207064 0.458234
545 1 0.562929 0.402012 0.14796 0.579141
546 1 0.589642 0.467131 0.140999 0.92314
547 1 0.585759 0.40323 0.209822 1.05167
548 1 0.562374 0.471281 0.209292 0.43312
549 1 0.612246 0.409298 0.144207 1.15955
550 1 0.639152 0.473451 0.14915 1.33727
551 1 0.640077 0.40665 0.204663 0.84285
552 1 0.612451 0.471141 0.213057 0.909474
553 1 0.66335 0.410107 0.141789 0.558933
554 1 0.687163 0.470902 0.143422 0.401035
555 1 0.686919 0.410835 0.205697 1.23394
556 2 0.662584 0.469271 0.211687 0.521354
557 1 0.71276 0.404363 0.145167 0.548311
558 1 0.735561 0.46968 0.150015 0.716317
559 1 0.735481 0.40366 0.215811 0.657771
560 1 0.712666 0.47655 0.211951 1.34869
561 1 0.761675 0.405568 0.149035 0.748381
562 1 0.785019 0.466676 0.144565 0.515454
563 1 0.78673 0.407878 0.212862 1.07223
564 1 0.761003 0.470307 0.210618 0.829182
565 1 0.814022 0.399021 0.142436 1.48099
566 1 0.837617 0.463185 0.143402 0.378231
567 1 0.838719 0.397971 0.212828 0.310824
568 1 0.81268 0.467913 0.2157 1.35152
569 1 0.863139 0.395583 0.145461 0.65529
570 1 0.887256 0.465337 0.146559 0.428046
571 1 0.885275 0.402616 0.21855 2.57702
572 1 0.862216 0.461716 0.210594 0.278795
573 1 0.912691 0.405967 0.143537 0.931082
574 1 0.937731 0.463062 0.144443 0.590671
575 2 0.935731 0.404484 0.207107 0.541094
576 1 0.913163 0.460584 0.211733 0.879713
577 1 0.961352 0.40433 0.145861 0.43754
578 1 0.988656 0.463834 0.14242 0.965571
579 1 0.988242 0.402548 0.202634 0.52505
580 1 0.960466 0.467293 0.208961 1.24037
581 2 0.0123066 0.529857 0.142814 1.06999
582 1 0.0355832 0.590193 0.138712 5.6741
583 1 0.0324256 0.523236 0.203453 5.85069
584 1 0.0100542 0.589564 0.203385 1.82642
585 1 0.0628606 0.529985 0.148089 1.35289
586 2 0.0863626 0.592373 0.15197 1.22685
587 1 0.0869918 0.533082 0.210463 1.1663
588 1 0.0616112 0.59014 0.205063 0.953025
589 1 0.111151 0.531639 0.146045 0.32184
590 1 0.134845 0.59824 0.147486 0.80827
591 1 0.136427 0.533292 0.210385 0.469075
592 1 0.111941 0.59951 0.20717 0.600272
593 1 0.161613 0.53775 0.142165 0.739946
594 2 0.18778 0.597943 0.141299 0.299579
595 1 0.185457 0.530486 0.201573 1.27535
596 1 0.163703 0.597014 0.204965 0.757061
597 1 0.211937 0.530351 0.139118 0.415458
598 1 0.235184 0.596963 0.141153 1.09709
599 1 0.237317 0.530461 0.209856 0.571168
600 1 0.211834 0.590782 0.208043 0.692261
601 1 0.26406 0.533242 0.147199 1.30819
602 2 0.287486 0.598702 0.14387 0.284614
603 1 0.289134 0.540492 0.207448 1.10759
604 1 0.261053 0.599538 0.205133 0.63054
605 1 0.312104 0.538704 0.144954 0.950348
606 1 0.33923 0.59968 0.140052 1.35785
607 1 0.339034 0.537948 0.209009 0.458371
608 1 0.313697 0.59881 0.205684 0.317275
609 1 0.362911 0.529964 0.140441 0.41677
610 1 0.386267 0.597536 0.146048 0.875412
611 1 0.388144 0.533785 0.207568 0.225719
612 1 0.362733 0.598387 0.211139 0.607343
613 1 0.410723 0.532149 0.142488 1.31733
614 1 0.437207 0.603039 0.142676 1.01596
615 1 0.439317 0.539821 0.20538 0.792022
616 1 0.415235 0.601738 0.204604 1.8539
617 2 0.462033 0.537911 0.148957 0.65408
618 1 0.489823 0.601487 0.143821 0.600578
619 1 0.486521 0.529773 0.206262 1.18894
620 1 0.463396 0.598506 0.203256 0.857188
621 1 0.51252 0.53394 0.146972 0.523371
622 1 0.537849 0.601337 0.133423 3.45835
623 1 0.538325 0.533782 0.209496 0.459635
624 1 0.514324 0.598019 0.209318 0.758986
625 1 0.562863 0.531895 0.143679 0.434798
626 1 0.589692 0.59867 0.149473 0.44963
627 1 0.589257 0.533538 0.212927 0.532577
628 1 0.562906 0.59873 0.21032 0.5279
629 1 0.614056 0.53106 0.143753 0.871199
630 1 0.64178 0.598746 0.148374 1.34514
631 1 0.638926 0.533512 0.212147 0.323153
632 1 0.615092 0.60049 0.212706 0.426203
633 1 0.663352 0.531581 0.146559 0.79646
634 1 0.68845 0.603097 0.146612 0.841479
635 1 0.68811 0.532716 0.217157 1.72092
636 1 0.664475 0.602873 0.21243 0.738028
637 1 0.71092 0.539461 0.143058 0.770169
638 1 0.737691 0.60426 0.139452 2.35824
639 1 0.737179 0.536682 0.215387 0.76027
640 1 0.71137 0.601387 0.218728 1.94793
641 1 0.759307 0.531233 0.144899 0.98801
642 1 0.787336 0.595042 0.14554 0.290155
643 1 0.786708 0.526139 0.210576 0.424879
644 1 0.762151 0.593182 0.212538 0.52649
645 1 0.810821 0.525432 0.141679 0.77551
646 1 0.836311 0.591305 0.14371 0.526253
647 1 0.836842 0.528308 0.210362 0.368838
648 1 0.8129 0.590242 0.212066 0.476102
649 1 0.862228 0.529527 0.144491 0.124583
650 1 0.887807 0.592638 0.14425 0.556184
651 1 0.887866 0.526872 0.207902 0.302877
652 1 0.862734 0.598951 0.211921 0.766937
653 1 0.914274 0.528406 0.148035 1.01584
654 1 0.937229 0.591472 0.149038 0.652878
655 2 0.935884 0.525936 0.211075 0.479038
656 1 0.911774 0.590856 0.21102 0.408689
657 1 0.959884 0.526383 0.147084 1.52947
658 1 0.987042 0.590644 0.145476 0.783821
659 1 0.991453 0.520095 0.208451 6.83723
660 1 0.96101 0.592114 0.204974 0.85244
661 1 0.00855633 0.661748 0.147991 1.45028
662 1 0.0360446 0.728584 0.14746 0.526392
663 1 0.037493 0.661525 0.205077 0.746399
664 1 0.0108876 0.730878 0.207379 0.618569
665 1 0.0644984 0.660613 0.149478 1.59663
666 1 0.0866526 0.72915 0.146679 0.520738
667 1 0.0889295 0.658109 0.213375 1.18574
668 1 0.0627205 0.727017 0.210364 0.394697
669 1 0.108224 0.660121 0.143686 2.04088
670 1 0.136017 0.720205 0.144853 1.50956
671 1 0.138344 0.662131 0.211745 0.807161
672 1 0.112558 0.728398 0.211396 0.529589
673 1 0.162654 0.65693 0.141099 1.02681
674 1 0.190229 0.727339 0.141976 0.998937
675 1 0.187748 0.662573 0.20526 0.244811
676 1 0.164545 0.730224 0.204388 1.23034
677 1 0.212191 0.657136 0.144459 0.686155
678 1 0.2401 0.722668 0.140629 1.57553
679 1 0.235675 0.659315 0.20938 0.832759
680 1 0.213414 0.723567 0.207176 0.496295
681 1 0.264523 0.662415 0.140441 0.794705
682 1 0.291445 0.730746 0.145201 2.92122
683 1 0.289304 0.659128 0.205715 0.987445
684 1 0.261794 0.721669 0.204473 1.32143
685 1 0.312149 0.655124 0.141273 2.10005
686 1 0.332058 0.725766 0.147693 2.82052
687 1 0.334957 0.662491 0.210482 0.747936
688 1 0.311158 0.731194 0.213219 1.89168
689 1 0.359212 0.667751 0.143452 0.851406
690 1 0.386071 0.732053 0.143152 1.68081
691 1 0.385123 0.6659 0.211661 0.804074
692 1 0.361481 0.730374 0.215495 0.7354
693 1 0.409571 0.663991 0.146698 6.47532
694 2 0.448352 0.735034 0.142641 16.4954
695 1 0.436883 0.675438 0.198687 6.34058
696 1 0.407628 0.732001 0.209553 6.36443
697 1 0.465406 0.665309 0.13792 1.96754
698 1 0.489927 0.729681 0.14346 0.695319
699 1 0.491929 0.665102 0.200939 1.88942
700 1 0.465537 0.730738 0.210612 1.74166
701 1 0.516554 0.663193 0.134891 2.46989
702 1 0.54151 0.730329 0.141035 0.889374
703 1 0.539885 0.665855 0.210666 1.00028
704 1 0.51491 0.733337 0.206949 0.682284
705 1 0.566168 0.668048 0.140396 1.18698
706 1 0.591398 0.726109 0.148825 0.835639
707 1 0.589702 0.661365 0.21199 0.677672
708 1 0.564624 0.732529 0.209021 0.542579
709 1 0.618546 0.662429 0.147872 1.99096
710 2 0.643159 0.725509 0.149738 3.67382
711 2 0.641309 0.659154 0.212291 0.471189
712 1 0.618187 0.719528 0.20535 2.47749
713 1 0.663336 0.662922 0.151918 1.11883
714 1 0.68781 0.724084 0.149563 0.587938
715 2 0.688119 0.665021 0.20901 0.614484
716 1 0.664216 0.721729 0.209794 0.841966
717 1 0.712424 0.662498 0.149762 0.478708
718 1 0.739246 0.72274 0.15055 0.754403
719 1 0.738534 0.660033 0.212669 0.387665