ITEM: TIMESTEP
0
ITEM: NUMBER OF ATOMS
4160
ITEM: BOX BOUNDS pp ss ss
3.1502608601326898e-01 8.0664973913986046e+01
-1.5673566288715518e+01 1.5654714235959737e+01
-1.5560405493226328e+01 1.5699734905970125e+01
ITEM: ATOMS id type xs ys zs c_csym
1 1 0.0118627 0.221793 0.0634442 39.3761
2 1 0.0618841 0.22264 0.0628133 38.1662
3 1 0.110937 0.219051 0.0656128 36.7813
4 1 0.161238 0.225894 0.0643427 30.8093
5 1 0.213519 0.22521 0.0652382 33.4461
6 1 0.262886 0.234941 0.0597766 33.5613
7 1 0.312775 0.230973 0.0596127 40.2853
8 1 0.362245 0.22521 0.0624872 35.1943
9 1 0.415177 0.217282 0.0549291 48.2081
10 1 0.465566 0.220434 0.0710896 29.4358
11 1 0.509728 0.223622 0.0640933 35.0626
12 1 0.5654 0.224414 0.0696301 36.186
13 1 0.616474 0.225757 0.07 31.8115
14 1 0.663668 0.219084 0.073811 34.1853
15 1 0.712965 0.220314 0.0720749 36.7421
16 1 0.760733 0.222549 0.0668212 38.828
17 1 0.815154 0.222879 0.0777369 28.9178
18 1 0.863046 0.223296 0.0757615 30.2186
19 1 0.913092 0.222652 0.0701363 30.673
20 1 0.962448 0.222698 0.0680396 35.4488
21 1 0.0411854 0.352396 0.00452828 32.5347
22 1 0.0370896 0.28659 0.0709549 19.2109
23 1 0.0110884 0.34902 0.0718689 6.82876
24 1 0.0838721 0.357545 0.00960682 34.8814
25 1 0.0874753 0.288944 0.0635543 12.9957
26 1 0.0623476 0.352256 0.0749489 6.41623
27 1 0.144337 0.349255 0.0079514 26.6885
28 1 0.134457 0.289091 0.065686 15.9413
29 1 0.112473 0.357444 0.0635518 7.02315
30 1 0.184702 0.348712 0.00734522 30.1565
31 1 0.188673 0.288127 0.0668411 18.8155
32 1 0.164267 0.346545 0.0750746 6.47082
33 1 0.237164 0.357293 0.00324293 39.5246
34 1 0.233964 0.289701 0.0657668 17.2809
35 1 0.208845 0.351606 0.0708204 6.36
36 1 0.289035 0.360529 0.00263469 41.362
37 1 0.288743 0.298765 0.066883 17.7131
38 1 0.261921 0.350879 0.0722275 5.94402
39 1 0.340527 0.357878 0.00949241 32.0483
40 1 0.337957 0.290884 0.0639342 13.6884
41 1 0.313956 0.355061 0.06774 6.53362
42 1 0.387526 0.357045 0.0181674 25.8957
43 1 0.388454 0.282851 0.0651297 14.7394
44 1 0.363918 0.35315 0.0747241 6.56595
45 1 0.439589 0.356726 0.00711309 33.4679
46 1 0.440921 0.286227 0.0663024 20.6206
47 1 0.414101 0.357449 0.0716557 5.61435
48 1 0.485976 0.352504 0.00598168 34.7816
49 1 0.487408 0.290573 0.0674891 12.6357
50 1 0.462402 0.359603 0.0744029 6.77408
51 1 0.537948 0.348623 0.0164798 33.699
52 1 0.536639 0.282347 0.0780413 11.6777
53 1 0.512694 0.354298 0.0714896 6.90614
54 1 0.58529 0.358147 0.00652667 33.7579
55 1 0.588882 0.287458 0.0665646 22.9293
56 1 0.563864 0.351347 0.0742222 6.86821
57 1 0.637961 0.352322 0.00776982 37.9492
58 1 0.641183 0.286812 0.0719257 18.559
59 1 0.613775 0.355701 0.070981 5.98131
60 1 0.685596 0.347418 0.016187 27.5847
61 1 0.686389 0.285366 0.0756681 20.407
62 1 0.66145 0.354869 0.0798174 6.63359
63 1 0.736999 0.3527 0.0133898 32.5571
64 1 0.73716 0.287867 0.0770753 18.5864
65 1 0.711497 0.353315 0.0708717 6.70082
66 1 0.786693 0.355365 0.0110636 31.3135
67 1 0.78972 0.286318 0.0722283 20.0093
68 1 0.761819 0.350815 0.0730282 6.94059
69 1 0.841304 0.355335 0.0108963 30.4531
70 1 0.839299 0.28663 0.0705928 13.5699
71 1 0.81511 0.349532 0.0721585 6.30316
72 1 0.891917 0.345779 0.00522368 35.0749
73 1 0.888729 0.289049 0.0688204 13.8004
74 1 0.864183 0.352633 0.0781965 6.92595
75 1 0.934521 0.355965 0.00446415 32.0064
76 1 0.93667 0.287248 0.0657066 14.4218
77 1 0.913183 0.351239 0.075104 6.59478
78 1 0.988007 0.347597 0.0055873 37.3084
79 1 0.9874 0.284081 0.0655831 22.3555
80 1 0.960036 0.35273 0.0697004 6.24187
81 1 0.0139809 0.412992 0.0113797 19.6206
82 1 0.0350519 0.482601 0.0163773 17.618
83 1 0.0372666 0.414405 0.0774004 0.898691
84 1 0.0107139 0.485055 0.0764999 0.847396
85 1 0.0613905 0.428182 0.0107468 15.7533
86 1 0.0881579 0.481832 0.00944672 18.6559
87 1 0.0866551 0.41938 0.0758285 0.77586
88 1 0.0611902 0.487415 0.0753786 0.846703
89 1 0.112509 0.419378 0.0051841 21.3795
90 1 0.137692 0.48532 0.00402006 22.8238
91 1 0.137885 0.415674 0.0660075 0.862775
92 1 0.111596 0.486042 0.0706416 0.926909
93 1 0.164676 0.419948 0.000155431 20.0789
94 1 0.186723 0.489458 0.000915598 19.9383
95 1 0.185359 0.416787 0.074026 0.874433
96 1 0.162772 0.481076 0.0684956 0.588194
97 1 0.209598 0.417924 0.0139825 17.4207
98 1 0.237835 0.490348 0.00457041 16.4821
99 1 0.235979 0.418061 0.0693264 0.640081
100 1 0.211287 0.484917 0.0715079 0.488178
101 1 0.263976 0.422807 0.00934222 20.9528
102 1 0.28678 0.486478 0.0150309 17.9004
103 1 0.288731 0.416865 0.0719491 0.441997
104 1 0.261809 0.484052 0.073675 0.620838
105 1 0.313791 0.420746 0.0109621 19.9779
106 1 0.33968 0.480071 0.00988255 19.1992
107 1 0.339771 0.420271 0.0713953 0.776659
108 1 0.312849 0.484893 0.0745868 0.374338
109 1 0.364139 0.422614 0.00670702 21.1977
110 1 0.387295 0.489093 0.0149854 18.2457
111 1 0.387492 0.422545 0.0806184 1.33133
112 1 0.362282 0.48497 0.078079 0.550733
113 1 0.411533 0.42395 0.00569138 19.473
114 1 0.440466 0.48249 0.00765022 18.9776
115 1 0.437547 0.418755 0.0636406 2.53096
116 1 0.412063 0.487403 0.0768089 1.01446
117 1 0.464402 0.417875 0.00808833 20.0857
118 1 0.490728 0.483568 0.00719149 13.7265
119 1 0.48966 0.417532 0.06821 1.09322
120 1 0.463687 0.48253 0.0728434 0.455869
121 1 0.513696 0.416992 0.00735629 22.0097
122 1 0.537838 0.484048 0.0112774 19.4818
123 1 0.537878 0.41661 0.069179 1.08083
124 1 0.513651 0.481462 0.0777841 0.678804
125 1 0.563962 0.427022 0.0077268 18.6339
126 1 0.586947 0.488899 0.00386365 22.2637
127 1 0.587745 0.41901 0.0748331 0.462943
128 1 0.564796 0.487834 0.0755868 1.28745
129 1 0.612207 0.42402 0.00446054 21.3928
130 1 0.640862 0.481889 0.0117986 17.5244
131 1 0.636765 0.418123 0.0735081 0.697693
132 1 0.611646 0.486822 0.0749597 0.99551
133 1 0.662841 0.412016 0.0161055 18.9566
134 1 0.685947 0.47622 0.00909189 12.8004
135 1 0.687215 0.414636 0.0799889 0.364498
136 1 0.664001 0.481176 0.0793679 0.702472
137 1 0.711051 0.414926 0.00680959 22.8603
138 1 0.736689 0.476421 0.00880827 20.7329
139 1 0.736441 0.420409 0.0731608 0.875448
140 1 0.710835 0.480349 0.0759336 0.732397
141 1 0.762478 0.419386 0.0107856 20.9457
142 1 0.787684 0.482345 0.01279 20.9598
143 1 0.788917 0.410911 0.0791955 1.42336
144 1 0.763842 0.480215 0.0748753 0.579383
145 1 0.81448 0.408425 0.00074612 24.1355
146 1 0.836835 0.486658 0.016617 18.9761
147 1 0.837242 0.41769 0.0736829 0.717603
148 1 0.812482 0.477656 0.0748265 0.568892
149 1 0.865122 0.415519 0.0122164 18.8325
150 1 0.885357 0.487976 0.020507 16.2805
151 1 0.88817 0.414952 0.076107 1.06497
152 1 0.862108 0.485866 0.0818965 0.928572
153 1 0.910225 0.423939 0.00632713 15.5605
154 1 0.94003 0.482665 0.00775202 19.0979
155 1 0.937983 0.421243 0.0719087 0.559134
156 1 0.913361 0.485659 0.0780414 0.685537
157 1 0.962918 0.41516 0.00489435 23.0298
158 1 0.988071 0.475641 0.0067976 18.5787
159 1 0.988121 0.410734 0.074988 0.935526
160 1 0.965131 0.483825 0.0756724 1.37782
161 1 0.00905473 0.549552 0.00937299 18.3813
162 1 0.0372891 0.622253 0.00870626 22.7012
163 1 0.0340105 0.551884 0.0717074 1.48377
164 1 0.0127928 0.615012 0.0747811 0.653949
165 1 0.059972 0.544733 0.00768377 19.4283
166 1 0.0890377 0.611892 0.0151251 19.9824
167 1 0.0855587 0.544186 0.0713411 1.39833
168 1 0.0605415 0.609506 0.0766904 0.990643
169 1 0.112759 0.548552 0.0174554 17.7328
170 1 0.138449 0.616675 0.0190373 18.4251
171 1 0.138096 0.546197 0.0784843 0.629939
172 1 0.111903 0.60943 0.0823923 0.800727
173 1 0.160882 0.548772 0.00823139 20.1045
174 1 0.187647 0.611282 0.0151526 18.9272
175 1 0.187475 0.546834 0.0732551 0.337711
176 1 0.160853 0.611119 0.0810792 0.724289
177 1 0.214876 0.551511 0.01049 20.4815
178 1 0.23892 0.614475 0.0150753 19.8556
179 1 0.238885 0.549117 0.0765004 0.396817
180 1 0.213532 0.613531 0.0768264 0.40848
181 1 0.263624 0.552618 0.0111885 13.3903
182 1 0.287039 0.614184 0.00670078 24.2996
183 1 0.286579 0.550571 0.0743695 0.672041
184 1 0.264919 0.615435 0.0779341 1.07671
185 1 0.314126 0.548825 0.0112977 20.0175
186 1 0.337868 0.616509 0.0096905 24.8123
187 1 0.337064 0.547481 0.0756248 0.417288
188 1 0.312736 0.61767 0.0737228 0.637393
189 1 0.361914 0.547631 0.00907765 20.6402
190 1 0.388332 0.613649 0.0167494 20.5276
191 1 0.387457 0.549585 0.0726356 0.596166
192 1 0.362006 0.614215 0.0779338 0.354984
193 1 0.414202 0.550996 0.00994727 20.7003
194 1 0.438337 0.618025 0.010186 22.4227
195 1 0.440505 0.547044 0.0695854 1.31122
196 1 0.413322 0.609706 0.0784562 0.528204
197 1 0.463996 0.554513 0.00937936 19.1316
198 1 0.488396 0.610379 0.00783069 19.7184
199 1 0.488621 0.546566 0.0713052 0.532129
200 1 0.463633 0.612275 0.074714 0.369381
201 1 0.514935 0.548759 0.0157871 18.7082
202 1 0.538383 0.616179 0.0101417 23.3283
203 1 0.538682 0.549223 0.0810766 0.859218
204 1 0.513993 0.613435 0.0792112 0.482235
205 1 0.563027 0.552662 0.00540785 14.8156
206 1 0.590656 0.617722 0.0151897 19.9562
207 1 0.585865 0.55425 0.0737683 2.04172
208 1 0.563922 0.615826 0.0794976 0.396332
209 1 0.613718 0.548628 0.00867162 20.9872
210 1 0.639224 0.614438 0.0152055 19.921
211 1 0.639447 0.544406 0.072659 0.872167
212 1 0.613005 0.612403 0.0763352 0.434448
213 1 0.663994 0.552856 0.00880912 20.9419
214 1 0.688989 0.612657 0.0176163 17.7023
215 1 0.687004 0.543096 0.0814041 0.982284
216 1 0.663122 0.612015 0.0750954 0.677815
217 1 0.712936 0.546228 0.0176721 19.0619
218 1 0.734835 0.611919 0.0113263 21.0847
219 1 0.738524 0.541617 0.0829861 1.18379
220 1 0.713378 0.611297 0.0838385 0.809585
221 1 0.760224 0.547649 0.0146247 19.0086
222 1 0.785257 0.609922 0.0138497 21.291
223 1 0.789279 0.545612 0.0798432 0.795295
224 1 0.764112 0.603866 0.0815714 1.49972
225 1 0.812769 0.553785 0.0135643 18.8706
226 1 0.837047 0.620259 0.0107928 22.1532
227 1 0.836689 0.550054 0.078128 0.505484
228 1 0.813085 0.612871 0.0808002 0.851429
229 1 0.860442 0.552162 0.0157281 19.7235
230 1 0.885728 0.60849 0.0138236 18.9608
231 1 0.887832 0.550628 0.078922 0.832967
232 1 0.860623 0.60871 0.0797504 0.697345
233 1 0.914899 0.542379 0.0126174 16.518
234 1 0.939634 0.613263 0.0105084 21.0878
235 1 0.937344 0.545124 0.0768328 0.528673
236 1 0.912313 0.612743 0.0750615 0.709076
237 1 0.96368 0.547161 0.00577027 14.5523
238 1 0.987192 0.617994 0.0130244 21.119
239 1 0.987356 0.548937 0.0819727 1.101
240 1 0.961802 0.609795 0.0780388 0.838845
241 1 0.0121383 0.683558 0.014515 38.3891
242 1 0.0371061 0.678956 0.0757698 6.06092
243 1 0.0126255 0.74798 0.0765424 14.8001
244 1 0.0637291 0.680875 0.0202719 30.6318
245 1 0.0878707 0.676828 0.0855689 5.79516
246 1 0.0638507 0.742106 0.0853713 13.1559
247 1 0.112786 0.679827 0.0162867 41.6322
248 1 0.135351 0.681209 0.0787497 6.47851
249 1 0.110493 0.741929 0.0867119 19.2206
250 1 0.163213 0.678669 0.0211821 31.9681
251 1 0.188379 0.676947 0.0851441 6.97471
252 1 0.164222 0.743806 0.0776541 20.1159
253 1 0.21245 0.681025 0.0183781 33.8196
254 1 0.237761 0.678559 0.0823208 6.62452
255 1 0.213943 0.749705 0.0758052 13.467
256 1 0.262235 0.677932 0.0205948 30.3152
257 1 0.287468 0.680089 0.0822456 7.07711
258 1 0.261349 0.749332 0.0793455 19.1372
259 1 0.312486 0.681132 0.0184096 34.298
260 1 0.339502 0.681439 0.0798034 6.47097
261 1 0.315108 0.738626 0.0829581 16.5582
262 1 0.362931 0.684451 0.012417 43.5566
263 1 0.386473 0.677533 0.0801345 6.42187
264 1 0.363973 0.752289 0.0794019 13.7283
265 1 0.415002 0.677176 0.0207323 32.1005
266 1 0.44019 0.675911 0.0855583 6.057
267 1 0.415451 0.742361 0.0835383 14.2948
268 1 0.465912 0.682862 0.0136904 37.1062
269 1 0.488526 0.673769 0.0801536 7.11162
270 1 0.464838 0.737601 0.0864567 11.5245
271 1 0.511614 0.680649 0.0172359 31.8002
272 1 0.53943 0.681607 0.0755957 6.54747
273 1 0.511118 0.744457 0.0798454 21.1555
274 1 0.565632 0.683114 0.0136605 37.5948
275 1 0.589773 0.676094 0.081017 6.01449
276 1 0.564903 0.746729 0.0770985 21.8217
277 1 0.616151 0.68417 0.0115285 44.3424
278 1 0.63781 0.678583 0.0775256 6.67222
279 1 0.61289 0.739953 0.0839542 19.1921
280 1 0.665329 0.683965 0.0157585 35.4852
281 1 0.688241 0.671649 0.0821757 5.88652
282 1 0.663508 0.744075 0.0890478 13.7954
283 1 0.709377 0.6892 0.0189823 36.663
284 1 0.736354 0.679575 0.0800021 6.75404
285 1 0.711266 0.744228 0.0907443 11.9054
286 1 0.761196 0.672596 0.0222363 34.2471
287 1 0.78618 0.665951 0.0848424 6.61234
288 1 0.762485 0.733642 0.0925763 17.2272
289 1 0.810023 0.674395 0.0256597 26.9228
290 1 0.83843 0.677801 0.0776836 5.62989
291 1 0.814526 0.739962 0.0862764 19.2808
292 1 0.861591 0.681484 0.0191028 34.1508
293 1 0.883651 0.670339 0.0772316 5.87389
294 1 0.862714 0.742421 0.0829865 12.2937
295 1 0.912504 0.672492 0.010437 38.2734
296 1 0.937367 0.675358 0.0759816 6.55965
297 1 0.90937 0.734504 0.0769227 11.0422
298 1 0.963178 0.681968 0.022526 28.9186
299 1 0.987624 0.679665 0.0828033 6.86079
300 1 0.96075 0.748667 0.0819778 13.9801
301 1 0.0397851 0.805702 0.0908183 28.6542
302 1 0.0863998 0.805168 0.0867552 36.1031
303 1 0.136105 0.809071 0.0844535 36.6838
304 1 0.188774 0.81275 0.0783706 42.2386
305 1 0.23773 0.815819 0.0887291 32.0914
306 1 0.287485 0.804747 0.0850619 33.8287
307 1 0.338012 0.810983 0.0926405 28.8289
308 1 0.389849 0.809014 0.0802583 43.0736
309 1 0.440956 0.805308 0.0869623 33.4322
310 1 0.486016 0.809445 0.0878173 33.763
311 1 0.536944 0.815378 0.092118 31.0842
312 1 0.58928 0.806911 0.0830371 38.1725
313 1 0.63754 0.808836 0.0881683 37.7856
314 1 0.686617 0.809754 0.0886405 39.0857
315 1 0.738807 0.796539 0.0917642 28.9575
316 1 0.784592 0.802207 0.091487 31.3929
317 1 0.837162 0.804462 0.0825428 43.404
318 1 0.887702 0.807901 0.0859999 34.7972
319 1 0.933391 0.806145 0.0849607 33.2486
320 1 0.985408 0.805809 0.085789 35.8027
321 1 0.0127013 0.0843045 0.193391 35.618
322 1 0.0591555 0.0904566 0.19001 33.6645
323 1 0.11166 0.0831135 0.192715 37.4087
324 1 0.164063 0.0947272 0.19233 28.7382
325 1 0.212758 0.0935493 0.190006 35.4415
326 1 0.260562 0.0890633 0.186978 35.4261
327 1 0.309658 0.0944393 0.187285 27.831
328 1 0.364434 0.0872965 0.189915 34.524
329 1 0.410296 0.0906111 0.184555 30.2203
330 1 0.46273 0.0871515 0.192514 36.3928
331 1 0.514936 0.0908226 0.198629 32.8259
332 1 0.563066 0.0886638 0.19583 38.3357
333 1 0.612125 0.0849661 0.199416 32.2332
334 1 0.6647 0.0861521 0.190043 37.8811
335 1 0.712417 0.0889671 0.198863 34.2287
336 1 0.760411 0.0898622 0.194874 36.1905
337 1 0.813752 0.087894 0.193227 34.1123
338 1 0.862061 0.0891867 0.191652 35.0598
339 1 0.912866 0.0874974 0.199329 29.1934
340 1 0.961525 0.0831659 0.184665 43.6705
341 1 0.0128446 0.160284 0.124467 27.011
342 1 0.0382069 0.219909 0.129609 7.13898
343 1 0.0364853 0.155004 0.196293 6.25141
344 1 0.0126428 0.218788 0.199144 0.567855
345 1 0.0626182 0.1585 0.130208 25.2062
346 1 0.087879 0.218038 0.132658 6.65325
347 1 0.0862726 0.145929 0.189418 6.72968
348 1 0.0623975 0.219378 0.193625 0.433204
349 1 0.110031 0.15468 0.129424 25.7058
350 1 0.137495 0.215464 0.129233 6.68035
351 1 0.137788 0.150496 0.185945 6.43134
352 1 0.114535 0.221478 0.193653 1.96437
353 1 0.165552 0.157212 0.117579 27.9923
354 1 0.187482 0.22263 0.125215 6.90981
355 1 0.188129 0.158764 0.194538 6.71709
356 1 0.161172 0.212525 0.196125 1.72904
357 1 0.213095 0.155298 0.128388 26.3616
358 1 0.239939 0.222781 0.123968 6.8526
359 1 0.238716 0.160182 0.191068 6.57635
360 1 0.212972 0.221295 0.185227 1.03235
361 1 0.264263 0.165024 0.124691 26.9342
362 1 0.288056 0.226499 0.12473 6.42478
363 1 0.287786 0.157601 0.185684 6.71134
364 1 0.263885 0.224391 0.193501 0.442362
365 1 0.314111 0.161972 0.128573 23.9777
366 1 0.338587 0.219921 0.125707 6.79293
367 1 0.339581 0.152227 0.186271 6.2725
368 1 0.31115 0.217494 0.191972 1.10148
369 1 0.367713 0.149348 0.12434 26.6509
370 1 0.387291 0.221153 0.13036 5.65496
371 1 0.387232 0.154802 0.196319 6.06189
372 1 0.362574 0.216869 0.193737 0.630184
373 1 0.412199 0.158795 0.12829 23.45
374 1 0.439518 0.220472 0.12577 6.48847
375 1 0.438635 0.156159 0.190126 7.49248
376 1 0.413651 0.218788 0.193768 0.26589
377 1 0.464783 0.154691 0.125302 32.1623
378 1 0.487337 0.226399 0.136541 6.64946
379 1 0.489738 0.154411 0.193972 6.61623
380 1 0.463503 0.217462 0.196323 0.392691
381 1 0.511999 0.154156 0.135521 27.0663
382 1 0.5372 0.218802 0.135088 7.52124
383 1 0.537656 0.154797 0.19498 6.94765
384 1 0.514052 0.222321 0.196818 0.743599
385 1 0.563906 0.154645 0.133332 30.0693
386 1 0.587605 0.219818 0.136069 7.46202
387 1 0.588594 0.15045 0.196727 6.98099
388 1 0.561267 0.217921 0.196345 1.03666
389 1 0.616104 0.146818 0.127055 34.6541
390 1 0.638565 0.229139 0.137795 7.05477
391 1 0.637692 0.148682 0.201039 6.06029
392 1 0.613272 0.220978 0.191117 2.19082
393 1 0.661538 0.153744 0.133901 24.6313
394 1 0.687993 0.214808 0.137887 7.21739
395 1 0.686246 0.15132 0.198494 6.66805
396 1 0.661707 0.213814 0.198794 0.819696
397 1 0.713669 0.156783 0.135855 25.5501
398 1 0.73699 0.220939 0.133513 6.742
399 1 0.737437 0.154295 0.198167 6.76289
400 1 0.711828 0.214513 0.194999 1.36111
401 1 0.760487 0.154233 0.133378 29.3963
402 1 0.786574 0.217621 0.134211 6.76662
403 1 0.785756 0.158253 0.193517 6.38942
404 1 0.760782 0.227058 0.200701 2.05137
405 1 0.815505 0.157482 0.134515 21.878
406 1 0.83886 0.219611 0.143769 5.70892
407 1 0.836718 0.154721 0.203265 6.42522
408 1 0.810979 0.222599 0.200066 0.861179
409 1 0.860788 0.151839 0.129208 30.2123
410 1 0.888627 0.215238 0.133518 6.25931
411 1 0.886118 0.149896 0.1933 7.44602
412 1 0.863478 0.220509 0.200329 0.674509
413 1 0.911796 0.149122 0.121219 36.6433
414 1 0.937487 0.219154 0.132722 7.29027
415 1 0.937888 0.148968 0.190379 7.01003
416 1 0.914067 0.211082 0.196338 1.18058
417 1 0.9618 0.15066 0.126398 31.3928
418 1 0.987044 0.217474 0.131434 7.02012
419 1 0.988001 0.148609 0.191581 6.98411
420 1 0.962957 0.213407 0.199021 0.750772
421 1 0.0129651 0.282349 0.13362 0.268979
422 1 0.0366983 0.345326 0.137601 0.923329
423 1 0.0382631 0.280399 0.196472 0.361954
424 1 0.0137655 0.350949 0.198296 0.943911
425 1 0.0646784 0.288224 0.130291 1.21989
426 1 0.0898082 0.34737 0.133654 1.31828
427 1 0.0882164 0.284398 0.196563 0.236643
428 1 0.0631371 0.346754 0.199393 0.240176
429 1 0.114031 0.288043 0.132607 0.813682
430 1 0.136208 0.353412 0.133131 0.59911
431 1 0.137133 0.287495 0.199906 1.00566
432 1 0.113101 0.350447 0.200632 0.318576
433 1 0.160792 0.283092 0.136112 1.25852
434 1 0.186212 0.351326 0.137171 0.902781
435 1 0.186768 0.279887 0.192205 0.630132
436 1 0.161842 0.350728 0.194508 0.891471
437 1 0.212535 0.2909 0.129388 0.673422
438 1 0.237073 0.358495 0.131681 1.21204
439 1 0.237284 0.286522 0.191736 0.359523
440 1 0.214609 0.349245 0.196073 1.47255
441 1 0.261875 0.293157 0.132993 0.785544
442 1 0.288065 0.350199 0.134408 0.342875
443 1 0.289152 0.289007 0.196698 0.768292
444 1 0.261907 0.352287 0.201682 0.523119
445 1 0.313925 0.284689 0.130441 0.332117
446 1 0.338294 0.344076 0.138681 1.85269
447 1 0.337358 0.275951 0.195152 1.24937
448 1 0.31556 0.346672 0.204477 1.90256
449 1 0.363382 0.284554 0.131886 0.353459
450 1 0.388581 0.344345 0.129495 2.26629
451 1 0.38888 0.278242 0.19719 0.779516
452 1 0.363625 0.34951 0.196872 0.503808
453 1 0.415 0.285961 0.129988 0.711502
454 1 0.437634 0.359809 0.130181 1.62857
455 1 0.439529 0.285186 0.196689 0.448005
456 1 0.413235 0.349805 0.193081 1.31617
457 1 0.463132 0.292501 0.133319 0.761056
458 1 0.489076 0.355795 0.13393 0.388938
459 1 0.488912 0.284889 0.200517 0.432525
460 1 0.463798 0.355605 0.198341 0.72469
461 1 0.512488 0.28533 0.132527 0.59274
462 1 0.537237 0.355576 0.137134 0.832058
463 1 0.536989 0.282872 0.196587 0.586229
464 1 0.512413 0.351478 0.19735 0.576826
465 1 0.562254 0.285277 0.133763 0.348661
466 1 0.586863 0.35285 0.138053 0.721129
467 1 0.587812 0.283652 0.199642 0.213017
468 1 0.562376 0.348665 0.202401 0.475832
469 1 0.611786 0.288768 0.132289 1.36147
470 1 0.637451 0.344498 0.139673 1.73517
471 1 0.638498 0.284008 0.20444 0.637922
472 1 0.614322 0.350141 0.197267 0.990835
473 1 0.663884 0.287813 0.146476 1.78352
474 1 0.687787 0.351405 0.142142 0.423971
475 1 0.685876 0.280863 0.205063 0.619987
476 1 0.66305 0.352827 0.210096 1.16198
477 1 0.711172 0.293609 0.144665 3.18741
478 1 0.736076 0.35281 0.13645 0.72928
479 1 0.737866 0.283742 0.203107 0.740809
480 1 0.712927 0.35039 0.211899 1.48496
481 1 0.762398 0.28301 0.132197 1.02195
482 1 0.786078 0.345438 0.139431 1.31748
483 1 0.788102 0.289523 0.202999 1.33754
484 1 0.762965 0.344575 0.203014 0.672453
485 1 0.813963 0.287889 0.138373 0.425332
486 1 0.839111 0.352563 0.136161 0.597367
487 1 0.836534 0.285202 0.204268 0.702129
488 1 0.813538 0.35188 0.201043 1.09858
489 1 0.862566 0.28845 0.143531 1.40296
490 1 0.885886 0.353548 0.138513 1.4165
491 1 0.887506 0.281829 0.19725 0.737424
492 1 0.86436 0.350763 0.199712 0.92773
493 1 0.914521 0.286258 0.136609 0.92247
494 1 0.93667 0.351783 0.135948 0.336388
495 1 0.937728 0.281512 0.197173 0.325397
496 1 0.912388 0.351917 0.203082 0.562741
497 1 0.961245 0.287619 0.133532 0.625838
498 1 0.986845 0.344925 0.131657 0.73768
499 1 0.988585 0.281255 0.193741 0.841379
500 1 0.96172 0.347982 0.198167 0.565079
501 1 0.012801 0.415152 0.137874 0.437684
502 1 0.035605 0.48209 0.134486 0.922306
503 1 0.0373888 0.416748 0.198927 0.438566
504 1 0.0113644 0.486798 0.20466 1.68459
505 1 0.0611114 0.417737 0.136483 0.582061
506 1 0.0888888 0.480377 0.134584 1.21321
507 1 0.0878712 0.412855 0.203242 0.569054
508 1 0.0625714 0.481305 0.199805 0.413446
509 1 0.11215 0.418763 0.13682 0.448638
510 1 0.13741 0.480242 0.134469 0.367883
511 1 0.138485 0.415782 0.202258 0.575795
512 1 0.112089 0.476141 0.202872 0.335716
513 1 0.159967 0.415627 0.130906 1.50611
514 1 0.185287 0.479202 0.139902 0.696491
515 1 0.186604 0.410464 0.199955 0.526712
516 1 0.162861 0.477791 0.200201 0.302857
517 1 0.210436 0.419359 0.132032 1.28367
518 1 0.237628 0.480332 0.14008 0.300021
519 1 0.2372 0.415952 0.202912 0.550665
520 1 0.211095 0.471921 0.205508 1.55873
521 1 0.264138 0.417166 0.137496 0.632725
522 1 0.288893 0.487031 0.138752 1.09604
523 1 0.288556 0.409912 0.200555 1.06779
524 1 0.263933 0.478161 0.203601 0.549979
525 1 0.312714 0.413029 0.132367 0.988309
526 1 0.336397 0.486268 0.139915 0.756725
527 1 0.337082 0.415192 0.198076 0.893844
528 1 0.311934 0.477246 0.205494 0.857155
529 1 0.363028 0.416466 0.13862 0.180467
530 1 0.387788 0.486839 0.139565 0.443655
531 1 0.387252 0.418723 0.208737 2.22172
532 1 0.363003 0.480683 0.201914 0.325141
533 1 0.414729 0.420369 0.139106 1.15598
534 1 0.43939 0.479967 0.141257 0.895624
535 1 0.437654 0.41355 0.204192 0.715664
536 1 0.4133 0.479629 0.20286 0.285293
537 1 0.462979 0.421456 0.137863 0.698466
538 1 0.486923 0.479886 0.138803 0.55609
539 1 0.487316 0.419117 0.202868 0.722611
540 1 0.460224 0.478108 0.211863 3.13036
541 1 0.513199 0.420991 0.137266 0.540644
542 1 0.538659 0.478338 0.137302 0.500613
543 1 0.539914 0.415325 0.198452 0.83673
544 1 0.512716 0.482092 0.201424 0.513525
545 1 0.562794 0.413552 0.133929 0.676425
546 1 0.588202 0.480056 0.138307 0.156751
547 1 0.589966 0.411171 0.203066 0.885058
548 1 0.563393 0.474957 0.203537 0.230216
549 1 0.613366 0.415774 0.134587 0.476254
550 1 0.636794 0.481311 0.138516 0.506523
551 1 0.637837 0.415883 0.20124 1.04289
552 1 0.611117 0.479215 0.203196 0.763358
553 1 0.662301 0.418185 0.148168 1.12442
554 1 0.688231 0.483168 0.148423 1.0527
555 1 0.688031 0.415043 0.204487 0.625785
556 1 0.662219 0.480716 0.211035 0.852563
557 1 0.711338 0.415884 0.142547 0.498133
558 1 0.738558 0.475707 0.138372 0.881161
559 1 0.737535 0.412362 0.206087 0.343752
560 1 0.71338 0.481798 0.202367 0.888233
561 1 0.764842 0.41275 0.13568 1.67435
562 1 0.787552 0.475361 0.141734 0.270113
563 1 0.785455 0.409791 0.207534 1.26265
564 1 0.762774 0.480101 0.208913 1.05001
565 1 0.813103 0.411647 0.142844 0.551544
566 1 0.835989 0.477602 0.142318 0.52526
567 1 0.838765 0.411507 0.203051 0.425737
568 1 0.811388 0.474216 0.205191 0.416892
569 1 0.863677 0.421259 0.138931 1.13455
570 1 0.888698 0.477754 0.145104 0.869825
571 1 0.889703 0.414038 0.203178 0.839672
572 1 0.862084 0.480423 0.211024 1.14632
573 1 0.914115 0.418072 0.139082 0.414033
574 1 0.938638 0.480499 0.13581 0.771306
575 1 0.938027 0.410887 0.203832 0.292963
576 1 0.914881 0.482485 0.203949 0.947583
577 1 0.963424 0.411457 0.134811 0.489593
578 1 0.988152 0.478795 0.141847 0.472914
579 1 0.987871 0.407466 0.199082 1.133
580 1 0.963557 0.47094 0.20497 1.4976
581 1 0.0100636 0.550119 0.144212 1.27568
582 1 0.0378677 0.608694 0.140847 0.728642
583 1 0.0388446 0.549357 0.203138 1.20091
584 1 0.0137345 0.610639 0.207786 0.832144
585 1 0.0621083 0.546641 0.138754 0.240924
586 1 0.0883541 0.610861 0.143746 0.684238
587 1 0.0872559 0.538966 0.207328 0.696187
588 1 0.0628326 0.610385 0.210467 0.418401
589 1 0.110565 0.544274 0.137742 0.823106
590 1 0.136423 0.612974 0.1485 1.42379
591 1 0.137313 0.541557 0.202415 0.355707
592 1 0.111225 0.60672 0.210087 0.633727
593 1 0.160733 0.541641 0.136966 0.911654
594 1 0.188423 0.606536 0.142844 0.471822
595 1 0.187498 0.542822 0.203971 0.48216
596 1 0.161493 0.600997 0.20644 1.14444
597 1 0.210777 0.538797 0.138768 1.2244
598 1 0.236285 0.61033 0.14084 0.640122
599 1 0.236053 0.540922 0.205968 0.694463
600 1 0.212876 0.605107 0.204792 0.568644
601 1 0.264252 0.54458 0.141398 0.939435
602 1 0.287912 0.61597 0.144635 0.682959
603 1 0.287728 0.549976 0.210064 1.25218
604 1 0.260536 0.610064 0.204226 1.06087
605 1 0.309674 0.556331 0.138951 2.43231
606 1 0.337923 0.61959 0.144709 1.01215
607 1 0.337235 0.54541 0.20488 0.284956
608 1 0.311614 0.615787 0.207019 0.73463
609 1 0.361665 0.549242 0.139306 0.426749
610 1 0.388813 0.615548 0.139038 0.854647
611 1 0.388139 0.546196 0.206426 0.362913
612 1 0.364334 0.610563 0.20903 0.533245
613 1 0.413415 0.543768 0.141203 0.517301
614 1 0.439002 0.608998 0.140188 0.550126
615 1 0.439556 0.546787 0.20262 0.960539
616 1 0.414246 0.611357 0.201843 1.12954
617 1 0.464125 0.542119 0.139131 0.671428
618 1 0.48798 0.608753 0.140122 0.391934
619 1 0.487764 0.545926 0.205964 0.246068
620 1 0.462382 0.610265 0.213691 1.26611
621 1 0.512082 0.54574 0.138104 0.490631
622 1 0.537493 0.614822 0.141841 0.539809
623 1 0.538811 0.543215 0.202137 0.567365
624 1 0.513357 0.607792 0.203583 0.581634
625 1 0.563839 0.545257 0.141598 0.317626
626 1 0.589451 0.609278 0.141689 0.795607
627 1 0.588928 0.542909 0.205016 0.636405
628 1 0.560559 0.60791 0.204999 2.02708
629 1 0.613638 0.540766 0.140849 1.21728
630 1 0.635651 0.605718 0.144157 1.22344
631 1 0.636175 0.540722 0.208074 0.394821
632 1 0.61013 0.610109 0.211955 1.64781
633 1 0.662078 0.546678 0.140955 0.569947
634 1 0.687776 0.609514 0.147228 0.289858
635 1 0.689191 0.546038 0.209089 0.600791
636 1 0.662147 0.608752 0.210602 0.249908
637 1 0.713883 0.545079 0.14015 0.610133
638 1 0.738086 0.606888 0.139994 1.31565
639 1 0.73783 0.538205 0.204052 0.688429
640 1 0.714887 0.602038 0.210103 1.11127
641 1 0.764453 0.540522 0.14806 0.900834
642 1 0.78973 0.605592 0.146042 0.910105
643 1 0.787421 0.541249 0.210488 0.27892
644 1 0.762528 0.606031 0.210324 0.466976
645 1 0.81151 0.54008 0.148191 0.923114
646 1 0.836413 0.608988 0.14332 0.571009
647 1 0.837334 0.537703 0.212572 0.516363
648 1 0.81324 0.599738 0.209676 0.868411
649 1 0.863554 0.542103 0.142181 0.690416
650 1 0.887978 0.607191 0.146202 0.58311
651 1 0.88716 0.540815 0.207255 0.307381
652 1 0.861926 0.601671 0.212403 0.533788
653 1 0.913153 0.546432 0.141962 0.213747
654 1 0.93844 0.611901 0.140601 0.654307
655 1 0.937772 0.546674 0.205106 0.559962
656 1 0.910646 0.604584 0.206028 1.29499
657 1 0.960855 0.546158 0.146288 1.34616
658 1 0.988385 0.615011 0.144491 0.922329
659 1 0.984585 0.54368 0.210834 1.58566
660 1 0.961927 0.608881 0.20645 0.398534
661 1 0.0115042 0.677362 0.143691 0.502221
662 1 0.0380981 0.735196 0.147875 1.00092
663 1 0.0368104 0.669386 0.210514 0.463175
664 1 0.0107851 0.737329 0.216799 0.748264
665 1 0.0607008 0.673904 0.144859 0.785511
666 1 0.0879243 0.738671 0.151821 0.349786
667 1 0.0879292 0.674181 0.211544 0.272095
668 1 0.0620949 0.736636 0.213107 0.331725
669 1 0.113076 0.679394 0.149969 1.03001
670 1 0.139187 0.741728 0.14559 0.538153
671 1 0.138436 0.669295 0.20755 0.494341
672 1 0.113567 0.736173 0.2121 0.222829
673 1 0.162555 0.676125 0.141989 0.403929
674 1 0.18769 0.738535 0.142269 0.529977
675 1 0.187706 0.668752 0.203237 0.861462
676 1 0.164617 0.733967 0.204901 1.15141
677 1 0.213017 0.675541 0.144613 0.265374
678 1 0.237782 0.7471 0.146244 0.570246
679 1 0.238352 0.68006 0.207396 0.722397
680 1 0.211004 0.739383 0.210291 0.37579
681 1 0.261336 0.68009 0.144664 0.537495
682 1 0.287794 0.743547 0.144358 0.276926
683 1 0.28818 0.676691 0.206204 0.508825
684 1 0.263366 0.745833 0.210685 0.614929
685 1 0.31431 0.678254 0.142499 0.364959
686 1 0.339462 0.742653 0.147456 0.288657
687 1 0.339341 0.675457 0.212175 0.659814
688 1 0.31427 0.738051 0.210826 0.42448
689 1 0.363816 0.681824 0.144059 0.533364
690 1 0.387973 0.741719 0.147008 0.244569
691 1 0.388818 0.674171 0.216055 1.27507
692 1 0.361431 0.743053 0.215662 1.30256
693 1 0.411544 0.676926 0.143295 1.36025
694 1 0.438211 0.734957 0.147989 0.679809
695 1 0.438308 0.671157 0.213714 0.330586
696 1 0.415609 0.736225 0.212599 1.48198
697 1 0.463187 0.67428 0.152161 1.08558
698 1 0.48821 0.738332 0.14706 0.410494
699 1 0.48858 0.668898 0.207591 0.778407
700 1 0.463703 0.732881 0.21599 0.583114
701 1 0.513397 0.676302 0.141959 0.276991
702 1 0.538282 0.741764 0.145211 0.425739
703 1 0.539494 0.678608 0.209301 0.972733
704 1 0.513758 0.736936 0.216534 0.525837
705 1 0.565228 0.678354 0.145788 1.02324
706 1 0.585918 0.743572 0.141238 2.34221
707 1 0.586771 0.667979 0.211747 1.41076
708 1 0.563519 0.737742 0.209091 0.63548
709 1 0.614435 0.675689 0.148041 1.19158
710 1 0.637797 0.739191 0.15113 0.152395
711 1 0.637643 0.666859 0.210702 0.827838
712 1 0.612415 0.733061 0.211092 0.598412
713 1 0.663643 0.674719 0.147803 0.457974
714 1 0.688443 0.735334 0.15028 0.605091
715 1 0.687966 0.670789 0.214243 0.159089
716 1 0.662989 0.738189 0.211772 0.673366
717 1 0.714135 0.672154 0.150663 0.592605