LAMMPS (30 Mar 2026 - Development - patch_30Mar2026-1121-g91d4111a9)
OMP_NUM_THREADS environment is not set. Defaulting to 1 thread.
  using 1 OpenMP thread(s) per MPI task
# LAMMPS Input File
# Licensed under CC BY 4.0
# A Set of Materials-Science Tutorials for the LAMMPS Simulation Package
# Tutorial 10: zone-center (Gamma-point) phonons of silicon from the
# dynamical matrix.
#
# Where Tutorial 9 reads the phonon frequencies off the thermal fluctuations
# of a finite-temperature MD run, here we take the zero-temperature, harmonic
# route: displace each atom by a tiny amount, record the forces induced on
# every atom, and assemble the force-constant (dynamical) matrix by finite
# difference.  Diagonalizing it gives the phonon frequencies AT the Gamma
# point.  It needs only one short, deterministic calculation -- no sampling.
#
# Silicon has the diamond structure: an fcc lattice with a TWO-atom basis.
# We build the 2-atom PRIMITIVE cell (a triclinic rhombohedron, exactly as in
# Tutorial 9 but with a second basis atom at 1/4,1/4,1/4).  Two atoms give a
# 6x6 dynamical matrix and six branches: three acoustic (zero frequency at
# Gamma) and three optical -- the optical branches are the new feature that
# the two-atom basis makes possible.  The Stillinger-Weber potential is the
# same one used for the elastic constants in Tutorial 6.

units       metal
atom_style  atomic
atom_modify map array              # dynamical_matrix needs an atom map
boundary    p p p

# --- diamond-silicon primitive cell (fcc primitive vectors, 2-atom basis) ---
variable    a0 equal 5.4309                 # SW silicon lattice constant
variable    s  equal ${a0}/sqrt(2.0)
variable    s  equal 5.4309/sqrt(2.0)
variable    lx equal ${s}
variable    lx equal 3.84022621794602
variable    ly equal ${s}*sqrt(3.0)/2.0
variable    ly equal 3.84022621794602*sqrt(3.0)/2.0
variable    lz equal ${s}*sqrt(2.0/3.0)
variable    lz equal 3.84022621794602*sqrt(2.0/3.0)
variable    ty equal ${s}/2.0
variable    ty equal 3.84022621794602/2.0
variable    tz equal ${s}/(2.0*sqrt(3.0))
variable    tz equal 3.84022621794602/(2.0*sqrt(3.0))

lattice     custom ${a0}                                      a1 0.7071068 0.0       0.0                        a2 0.3535534 0.6123724 0.0                        a3 0.3535534 0.2041241 0.5773503                  basis 0.0  0.0  0.0                               basis 0.25 0.25 0.25
lattice     custom 5.4309                                      a1 0.7071068 0.0       0.0                        a2 0.3535534 0.6123724 0.0                        a3 0.3535534 0.2041241 0.5773503                  basis 0.0  0.0  0.0                               basis 0.25 0.25 0.25
Lattice spacing in x,y,z = 7.6804526 4.4343108 3.1355317
region      box prism 0 ${lx} 0 ${ly} 0 ${lz} ${ty} ${ty} ${tz} units box
region      box prism 0 3.84022621794602 0 ${ly} 0 ${lz} ${ty} ${ty} ${tz} units box
region      box prism 0 3.84022621794602 0 3.32573346102029 0 ${lz} ${ty} ${ty} ${tz} units box
region      box prism 0 3.84022621794602 0 3.32573346102029 0 3.13553157694194 ${ty} ${ty} ${tz} units box
region      box prism 0 3.84022621794602 0 3.32573346102029 0 3.13553157694194 1.92011310897301 ${ty} ${tz} units box
region      box prism 0 3.84022621794602 0 3.32573346102029 0 3.13553157694194 1.92011310897301 1.92011310897301 ${tz} units box
region      box prism 0 3.84022621794602 0 3.32573346102029 0 3.13553157694194 1.92011310897301 1.92011310897301 1.1085778203401 units box
create_box  1 box
Created triclinic box = (0 0 0) to (3.8402262 3.3257335 3.1355316) with tilt (1.9201131 1.9201131 1.1085778)
WARNING: Triclinic box skew is large. LAMMPS will run inefficiently. (src/domain.cpp:221)
  1 by 1 by 1 MPI processor grid
create_atoms 1 box
Created 2 atoms
  using lattice units in triclinic box = (0 0 0) to (3.8402262 3.3257335 3.1355316) with tilt (1.9201131 1.9201131 1.1085778)
  create_atoms CPU = 0.000 seconds
mass        1 28.0855

pair_style  sw
pair_coeff  * * Si.sw Si
Reading sw potential file Si.sw with DATE: 2007-06-11
neighbor    1.0 bin

# relax to the exact stress-free geometry: finite differences need it
fix         1 all box/relax iso 0.0 vmax 0.001
minimize    1.0e-12 1.0e-12 1000 10000
Neighbor list info ...
  update: every = 1 steps, delay = 0 steps, check = yes
  max neighbors/atom: 2000, page size: 100000
  master list distance cutoff = 4.77118
  ghost atom cutoff = 4.77118
  binsize = 2.38559, bins = 4 2 2
  1 neighbor lists, perpetual/occasional/extra = 1 0 0
  (1) pair sw, perpetual
      attributes: full, newton on
      pair build: full/bin/atomonly
      stencil: full/bin/3d
      bin: standard
WARNING: Energy due to 1 extra global DOFs will be included in minimizer energies
 (src/min.cpp:222)
Per MPI rank memory allocation (min/avg/max) = 4.212 | 4.212 | 4.212 Mbytes
   Step          Temp          E_pair         E_mol          TotEng         Press          Volume    
         0   0             -8.6732         0             -8.6732         27.889573      40.045657    
         2   0             -8.6732         0             -8.6732        -0.081304814    40.046762    
Loop time of 2.7412e-05 on 1 procs for 2 steps with 2 atoms

87.6% CPU use with 1 MPI tasks x 1 OpenMP threads

Minimization stats:
  Stopping criterion = energy tolerance
  Energy initial, next-to-last, final = 
     -8.67319999025045  -8.67319999983435  -8.67319999983445
  Force two-norm initial, final = 0.0020912634 6.0967465e-06
  Force max component initial, final = 0.0020912607 6.0966403e-06
  Final line search alpha, max atom move = 1 6.0966403e-06
  Iterations, force evaluations = 2 4

MPI task timing breakdown:
Section |  min time  |  avg time  |  max time  |%varavg| %total
---------------------------------------------------------------
Pair    | 4.198e-06  | 4.198e-06  | 4.198e-06  |   0.0 | 15.31
Neigh   | 0          | 0          | 0          |   0.0 |  0.00
Comm    | 2.193e-06  | 2.193e-06  | 2.193e-06  |   0.0 |  8.00
Output  | 0          | 0          | 0          |   0.0 |  0.00
Modify  | 0          | 0          | 0          |   0.0 |  0.00
Other   |            | 2.102e-05  |            |       | 76.69

Nlocal:              2 ave           2 max           2 min
Histogram: 1 0 0 0 0 0 0 0 0 0
Nghost:            126 ave         126 max         126 min
Histogram: 1 0 0 0 0 0 0 0 0 0
Neighs:              0 ave           0 max           0 min
Histogram: 1 0 0 0 0 0 0 0 0 0
FullNghs:           56 ave          56 max          56 min
Histogram: 1 0 0 0 0 0 0 0 0 0

Total # of neighbors = 56
Ave neighs/atom = 28
Neighbor list builds = 0
Dangerous builds = 0
unfix       1
print       "relaxed: $(atoms) atoms, pe/atom = $(pe/atoms) eV"
relaxed: 2 atoms, pe/atom = -4.3365999999172233359 eV

# --- finite-difference dynamical matrix at the Gamma point ---
# eskm: mass-weighted output in 1/fs^2, so sqrt(eigenvalue)/(2 pi) is in THz.
dynamical_matrix all eskm 1.0e-6 file dynmat.dat binary no
Loop time of 3.4947e-05 on 1 procs for 12 steps with 2 atoms

Performance: 29667.783 ns/day, 0.001 hours/ns, 343377.114 timesteps/s, 686.754 katom-step/s
100.2% CPU use with 1 MPI tasks x 1 OpenMP threads

MPI task timing breakdown:
Section |  min time  |  avg time  |  max time  |%varavg| %total
---------------------------------------------------------------
Pair    | 2.5557e-05 | 2.5557e-05 | 2.5557e-05 |   0.0 | 73.13
Neigh   | 0          | 0          | 0          |   0.0 |  0.00
Comm    | 2.106e-06  | 2.106e-06  | 2.106e-06  |   0.0 |  6.03
Output  | 0          | 0          | 0          |   0.0 |  0.00
Modify  | 0          | 0          | 0          |   0.0 |  0.00
Other   |            | 7.284e-06  |            |       | 20.84

Nlocal:              2 ave           2 max           2 min
Histogram: 1 0 0 0 0 0 0 0 0 0
Nghost:            126 ave         126 max         126 min
Histogram: 1 0 0 0 0 0 0 0 0 0
Neighs:              0 ave           0 max           0 min
Histogram: 1 0 0 0 0 0 0 0 0 0
FullNghs:           56 ave          56 max          56 min
Histogram: 1 0 0 0 0 0 0 0 0 0

Total # of neighbors = 56
Ave neighs/atom = 28
Neighbor list builds = 1
Dangerous builds = 0

# Diagonalize and report the frequencies with:  python3 phonon-gamma.py
Total wall time: 0:00:00
