LAMMPS (30 Mar 2026 - Development - patch_30Mar2026-1121-g91d4111a9)
OMP_NUM_THREADS environment is not set. Defaulting to 1 thread.
  using 1 OpenMP thread(s) per MPI task
# LAMMPS Input File
# Licensed under CC BY 4.0
# A Set of Materials-Science Tutorials for the LAMMPS Simulation Package
# Modernized recreation of the MSU/CAVS tutorials by Mark A. Tschopp
# Tutorial 6: elastic constants of crystalline silicon (Stillinger-Weber).
#
# The full 6x6 stiffness matrix C_ij is obtained by deforming the relaxed
# diamond-cubic cell by a small strain in each of the six Voigt directions,
# relaxing the internal atom positions at fixed box shape, and recording the
# resulting stress tensor.  C_ij = d(sigma_i)/d(eps_j) is the slope of the
# stress-strain response, so each direction is scanned over a range of small
# strains and the slopes are fitted afterwards by plot.py.
#
# Strategy (compare Tutorial 2): the relaxed cell is written once to a data
# file, then an in-LAMMPS double loop over the six directions and a list of
# strains re-reads that reference cell, deforms it, and appends one record per
# (direction, strain) to a structured YAML file.  Reload the reference for
# every case so the strains are always measured from the same zero-stress
# state.

# ---------------------------------------------------------------------------
# 1) Equilibrium reference: relax box and atoms to zero pressure
# ---------------------------------------------------------------------------
units metal
boundary p p p
atom_style atomic

variable a0 equal 5.43                  # SW silicon lattice constant (Angstrom)
lattice diamond ${a0}
lattice diamond 5.43
Lattice spacing in x,y,z = 5.43 5.43 5.43
region box prism 0 3 0 3 0 3 0 0 0      # prism box so shear (tilt) is allowed
create_box 1 box
Created triclinic box = (0 0 0) to (16.29 16.29 16.29) with tilt (0 0 0)
  1 by 1 by 1 MPI processor grid
create_atoms 1 box
Created 216 atoms
  using lattice units in triclinic box = (0 0 0) to (16.29 16.29 16.29) with tilt (0 0 0)
  create_atoms CPU = 0.000 seconds
mass 1 28.0855

pair_style sw
pair_coeff * * Si.sw Si
Reading sw potential file Si.sw with DATE: 2007-06-11

min_style cg
min_modify dmax 0.01 line quadratic
thermo 50
thermo_style custom step pe press pxx pyy pzz pyz pxz pxy lx ly lz

# relax cell shape and volume to zero stress (aniso: each axis independently)
fix relax all box/relax aniso 0.0
minimize 0.0 1.0e-12 1000 10000
Neighbor list info ...
  update: every = 1 steps, delay = 0 steps, check = yes
  max neighbors/atom: 2000, page size: 100000
  master list distance cutoff = 5.77118
  ghost atom cutoff = 5.77118
  binsize = 2.88559, bins = 6 6 6
  1 neighbor lists, perpetual/occasional/extra = 1 0 0
  (1) pair sw, perpetual
      attributes: full, newton on
      pair build: full/bin/atomonly
      stencil: full/bin/3d
      bin: standard
WARNING: Energy due to 3 extra global DOFs will be included in minimizer energies
 (src/min.cpp:222)
Per MPI rank memory allocation (min/avg/max) = 4.218 | 4.218 | 4.218 Mbytes
   Step         PotEng         Press           Pxx            Pyy            Pzz            Pyz            Pxz            Pxy             Lx             Ly             Lz      
         0  -936.70522      532.56802      532.56802      532.56802      532.56802      3.4631429e-11 -2.4285105e-11  3.4204721e-11  16.29          16.29          16.29        
        50  -936.7056      -1.0334782e-09 -5.5267938e-10 -5.2875389e-10 -2.0190012e-09 -7.8334079e-10  1.3151734e-10  6.7598294e-11  16.292849      16.292849      16.292849    
        94  -936.7056       3.709973e-11   7.9842754e-11 -8.2575918e-11  1.1403235e-10 -1.9537546e-10  2.4114435e-10  1.4739686e-10  16.292849      16.292849      16.292849    
Loop time of 0.0147825 on 1 procs for 94 steps with 216 atoms

99.5% CPU use with 1 MPI tasks x 1 OpenMP threads

Minimization stats:
  Stopping criterion = force tolerance
  Energy initial, next-to-last, final = 
     -936.705223045316  -936.705599982132  -936.705599982132
  Force two-norm initial, final = 2.488792 8.449723e-13
  Force max component initial, final = 1.4369048 3.0777469e-13
  Final line search alpha, max atom move = 1 3.0777469e-13
  Iterations, force evaluations = 94 187

MPI task timing breakdown:
Section |  min time  |  avg time  |  max time  |%varavg| %total
---------------------------------------------------------------
Pair    | 0.012745   | 0.012745   | 0.012745   |   0.0 | 86.22
Neigh   | 0          | 0          | 0          |   0.0 |  0.00
Comm    | 0.000415   | 0.000415   | 0.000415   |   0.0 |  2.81
Output  | 1.3827e-05 | 1.3827e-05 | 1.3827e-05 |   0.0 |  0.09
Modify  | 0          | 0          | 0          |   0.0 |  0.00
Other   |            | 0.001609   |            |       | 10.88

Nlocal:            216 ave         216 max         216 min
Histogram: 1 0 0 0 0 0 0 0 0 0
Nghost:            950 ave         950 max         950 min
Histogram: 1 0 0 0 0 0 0 0 0 0
Neighs:              0 ave           0 max           0 min
Histogram: 1 0 0 0 0 0 0 0 0 0
FullNghs:         7344 ave        7344 max        7344 min
Histogram: 1 0 0 0 0 0 0 0 0 0

Total # of neighbors = 7344
Ave neighs/atom = 34
Neighbor list builds = 0
Dangerous builds = 0
unfix relax

# save the relaxed reference cell and capture its edge lengths as constants
# (immediate $... expansion freezes the current value; these survive "clear")
write_data Si_equil.data
System init for write_data ...
variable tmp equal lx
variable lx0 equal ${tmp}
variable lx0 equal 16.2928493352156
variable tmp equal ly
variable ly0 equal ${tmp}
variable ly0 equal 16.2928493352156
variable tmp equal lz
variable lz0 equal ${tmp}
variable lz0 equal 16.2928493352156

# ---------------------------------------------------------------------------
# 2) Scan a small strain in each of the six Voigt directions
# ---------------------------------------------------------------------------
# YAML output: one record per (direction, strain) with the pressure tensor.
# Stress is the negative of the pressure; plot.py negates and converts to GPa.
print "# elastic constants of SW silicon" file scan.yaml screen no
print "# dir = Voigt direction 1..6 (xx yy zz yz xz xy)" append scan.yaml screen no
print "# eps = applied strain; pressures pij in bar" append scan.yaml screen no

variable dir loop 6
label dirloop

  # (re)create the strain list at the start of each direction
  variable eps index -0.008 -0.006 -0.004 -0.002 0.002 0.004 0.006 0.008
  label epsloop

    # reload the zero-stress reference; clear resets units, so set them again
    clear
OMP_NUM_THREADS environment is not set. Defaulting to 1 thread.
  using 1 OpenMP thread(s) per MPI task
    units metal
    read_data Si_equil.data
Reading data file ...
  triclinic box = (-0.0014246676 -0.0014246676 -0.0014246676) to (16.291425 16.291425 16.291425) with tilt (0 0 0)
  1 by 1 by 1 MPI processor grid
  reading atoms ...
  216 atoms
  reading velocities ...
  216 velocities
  read_data CPU = 0.001 seconds
    pair_style sw
    pair_coeff * * Si.sw Si
Reading sw potential file Si.sw with DATE: 2007-06-11
    min_style cg
    min_modify dmax 0.01 line quadratic

    # reference length for this direction (normal: own axis; shear: see below)
    if "${dir} == 1" then "variable len0 equal ${lx0}"
variable len0 equal ${lx0}
variable len0 equal 16.2928493352156
    if "${dir} == 2" then "variable len0 equal ${ly0}"
    if "${dir} == 3" then "variable len0 equal ${lz0}"
    if "${dir} == 4" then "variable len0 equal ${lz0}"
    if "${dir} == 5" then "variable len0 equal ${lz0}"
    if "${dir} == 6" then "variable len0 equal ${ly0}"
    variable d equal ${eps}*${len0}     # box change in distance units
    variable d equal -0.008*${len0}     
    variable d equal -0.008*16.2928493352156     

    # apply the strain: directions 1-3 stretch an edge, 4-6 add a tilt
    if "${dir} == 1" then "change_box all x  delta 0 ${d} remap units box"
change_box all x  delta 0 ${d} remap units box
change_box all x  delta 0 -0.130342794681725 remap units box
Changing box ...
  triclinic box = (-0.0014246676 -0.0014246676 -0.0014246676) to (16.161082 16.291425 16.291425) with tilt (0 0 0)
    if "${dir} == 2" then "change_box all y  delta 0 ${d} remap units box"
    if "${dir} == 3" then "change_box all z  delta 0 ${d} remap units box"
    if "${dir} == 4" then "change_box all yz delta ${d}   remap units box"
    if "${dir} == 5" then "change_box all xz delta ${d}   remap units box"
    if "${dir} == 6" then "change_box all xy delta ${d}   remap units box"

    # relax the internal coordinates only (box shape stays fixed)
    minimize 0.0 1.0e-12 1000 10000
Neighbor list info ...
  update: every = 1 steps, delay = 0 steps, check = yes
  max neighbors/atom: 2000, page size: 100000
  master list distance cutoff = 5.77118
  ghost atom cutoff = 5.77118
  binsize = 2.88559, bins = 6 6 6
  1 neighbor lists, perpetual/occasional/extra = 1 0 0
  (1) pair sw, perpetual
      attributes: full, newton on
      pair build: full/bin/atomonly
      stencil: full/bin/3d
      bin: standard
Per MPI rank memory allocation (min/avg/max) = 4.214 | 4.214 | 4.214 Mbytes
   Step          Temp          E_pair         E_mol          TotEng         Press     
         0   0             -936.57402      0             -936.57402      8230.3316    
         1   0             -936.57402      0             -936.57402      8230.3316    
Loop time of 0.000187389 on 1 procs for 1 steps with 216 atoms

0.0% CPU use with 1 MPI tasks x 1 OpenMP threads

Minimization stats:
  Stopping criterion = force tolerance
  Energy initial, next-to-last, final = 
     -936.574021614385  -936.574021614385  -936.574021614385
  Force two-norm initial, final = 2.4216907e-12 6.7366258e-13
  Force max component initial, final = 3.8548613e-13 7.8347051e-14
  Final line search alpha, max atom move = 1 7.8347051e-14
  Iterations, force evaluations = 1 2

MPI task timing breakdown:
Section |  min time  |  avg time  |  max time  |%varavg| %total
---------------------------------------------------------------
Pair    | 0.00017426 | 0.00017426 | 0.00017426 |   0.0 | 92.99
Neigh   | 0          | 0          | 0          |   0.0 |  0.00
Comm    | 5.6e-06    | 5.6e-06    | 5.6e-06    |   0.0 |  2.99
Output  | 0          | 0          | 0          |   0.0 |  0.00
Modify  | 0          | 0          | 0          |   0.0 |  0.00
Other   |            | 7.527e-06  |            |       |  4.02

Nlocal:            216 ave         216 max         216 min
Histogram: 1 0 0 0 0 0 0 0 0 0
Nghost:            950 ave         950 max         950 min
Histogram: 1 0 0 0 0 0 0 0 0 0
Neighs:              0 ave           0 max           0 min
Histogram: 1 0 0 0 0 0 0 0 0 0
FullNghs:         7344 ave        7344 max        7344 min
Histogram: 1 0 0 0 0 0 0 0 0 0

Total # of neighbors = 7344
Ave neighs/atom = 34
Neighbor list builds = 0
Dangerous builds = 0

    print "- {dir: ${dir}, eps: ${eps}, pxx: $(pxx:%.6f), pyy: $(pyy:%.6f),         pzz: $(pzz:%.6f), pyz: $(pyz:%.6f), pxz: $(pxz:%.6f),         pxy: $(pxy:%.6f)}" append scan.yaml screen no

    variable len0 delete
    variable d delete
  next eps
  jump SELF epsloop

    # reload the zero-stress reference; clear resets units, so set them again
    clear
OMP_NUM_THREADS environment is not set. Defaulting to 1 thread.
  using 1 OpenMP thread(s) per MPI task
    units metal
    read_data Si_equil.data
Reading data file ...
  triclinic box = (-0.0014246676 -0.0014246676 -0.0014246676) to (16.291425 16.291425 16.291425) with tilt (0 0 0)
  1 by 1 by 1 MPI processor grid
  reading atoms ...
  216 atoms
  reading velocities ...
  216 velocities
  read_data CPU = 0.001 seconds
    pair_style sw
    pair_coeff * * Si.sw Si
Reading sw potential file Si.sw with DATE: 2007-06-11
    min_style cg
    min_modify dmax 0.01 line quadratic

    # reference length for this direction (normal: own axis; shear: see below)
    if "${dir} == 1" then "variable len0 equal ${lx0}"
variable len0 equal ${lx0}
variable len0 equal 16.2928493352156
    if "${dir} == 2" then "variable len0 equal ${ly0}"
    if "${dir} == 3" then "variable len0 equal ${lz0}"
    if "${dir} == 4" then "variable len0 equal ${lz0}"
    if "${dir} == 5" then "variable len0 equal ${lz0}"
    if "${dir} == 6" then "variable len0 equal ${ly0}"
    variable d equal ${eps}*${len0}     # box change in distance units
    variable d equal -0.006*${len0}     
    variable d equal -0.006*16.2928493352156     

    # apply the strain: directions 1-3 stretch an edge, 4-6 add a tilt
    if "${dir} == 1" then "change_box all x  delta 0 ${d} remap units box"
change_box all x  delta 0 ${d} remap units box
change_box all x  delta 0 -0.0977570960112936 remap units box
Changing box ...
  triclinic box = (-0.0014246676 -0.0014246676 -0.0014246676) to (16.193668 16.291425 16.291425) with tilt (0 0 0)
    if "${dir} == 2" then "change_box all y  delta 0 ${d} remap units box"
    if "${dir} == 3" then "change_box all z  delta 0 ${d} remap units box"
    if "${dir} == 4" then "change_box all yz delta ${d}   remap units box"
    if "${dir} == 5" then "change_box all xz delta ${d}   remap units box"
    if "${dir} == 6" then "change_box all xy delta ${d}   remap units box"

    # relax the internal coordinates only (box shape stays fixed)
    minimize 0.0 1.0e-12 1000 10000
Neighbor list info ...
  update: every = 1 steps, delay = 0 steps, check = yes
  max neighbors/atom: 2000, page size: 100000
  master list distance cutoff = 5.77118
  ghost atom cutoff = 5.77118
  binsize = 2.88559, bins = 6 6 6
  1 neighbor lists, perpetual/occasional/extra = 1 0 0
  (1) pair sw, perpetual
      attributes: full, newton on
      pair build: full/bin/atomonly
      stencil: full/bin/3d
      bin: standard
Per MPI rank memory allocation (min/avg/max) = 4.214 | 4.214 | 4.214 Mbytes
   Step          Temp          E_pair         E_mol          TotEng         Press     
         0   0             -936.6317       0             -936.6317       6150.7562    
         1   0             -936.6317       0             -936.6317       6150.7562    
Loop time of 0.000212125 on 1 procs for 1 steps with 216 atoms

97.6% CPU use with 1 MPI tasks x 1 OpenMP threads

Minimization stats:
  Stopping criterion = force tolerance
  Energy initial, next-to-last, final = 
     -936.631695664959  -936.631695664959  -936.631695664959
  Force two-norm initial, final = 2.427437e-12 6.8067086e-13
  Force max component initial, final = 3.9371826e-13 7.4219277e-14
  Final line search alpha, max atom move = 1 7.4219277e-14
  Iterations, force evaluations = 1 2

MPI task timing breakdown:
Section |  min time  |  avg time  |  max time  |%varavg| %total
---------------------------------------------------------------
Pair    | 0.00019825 | 0.00019825 | 0.00019825 |   0.0 | 93.46
Neigh   | 0          | 0          | 0          |   0.0 |  0.00
Comm    | 5.88e-06   | 5.88e-06   | 5.88e-06   |   0.0 |  2.77
Output  | 0          | 0          | 0          |   0.0 |  0.00
Modify  | 0          | 0          | 0          |   0.0 |  0.00
Other   |            | 7.995e-06  |            |       |  3.77

Nlocal:            216 ave         216 max         216 min
Histogram: 1 0 0 0 0 0 0 0 0 0
Nghost:            950 ave         950 max         950 min
Histogram: 1 0 0 0 0 0 0 0 0 0
Neighs:              0 ave           0 max           0 min
Histogram: 1 0 0 0 0 0 0 0 0 0
FullNghs:         7344 ave        7344 max        7344 min
Histogram: 1 0 0 0 0 0 0 0 0 0

Total # of neighbors = 7344
Ave neighs/atom = 34
Neighbor list builds = 0
Dangerous builds = 0

    print "- {dir: ${dir}, eps: ${eps}, pxx: $(pxx:%.6f), pyy: $(pyy:%.6f),         pzz: $(pzz:%.6f), pyz: $(pyz:%.6f), pxz: $(pxz:%.6f),         pxy: $(pxy:%.6f)}" append scan.yaml screen no

    variable len0 delete
    variable d delete
  next eps
  jump SELF epsloop

    # reload the zero-stress reference; clear resets units, so set them again
    clear
OMP_NUM_THREADS environment is not set. Defaulting to 1 thread.
  using 1 OpenMP thread(s) per MPI task
    units metal
    read_data Si_equil.data
Reading data file ...
  triclinic box = (-0.0014246676 -0.0014246676 -0.0014246676) to (16.291425 16.291425 16.291425) with tilt (0 0 0)
  1 by 1 by 1 MPI processor grid
  reading atoms ...
  216 atoms
  reading velocities ...
  216 velocities
  read_data CPU = 0.001 seconds
    pair_style sw
    pair_coeff * * Si.sw Si
Reading sw potential file Si.sw with DATE: 2007-06-11
    min_style cg
    min_modify dmax 0.01 line quadratic

    # reference length for this direction (normal: own axis; shear: see below)
    if "${dir} == 1" then "variable len0 equal ${lx0}"
variable len0 equal ${lx0}
variable len0 equal 16.2928493352156
    if "${dir} == 2" then "variable len0 equal ${ly0}"
    if "${dir} == 3" then "variable len0 equal ${lz0}"
    if "${dir} == 4" then "variable len0 equal ${lz0}"
    if "${dir} == 5" then "variable len0 equal ${lz0}"
    if "${dir} == 6" then "variable len0 equal ${ly0}"
    variable d equal ${eps}*${len0}     # box change in distance units
    variable d equal -0.004*${len0}     
    variable d equal -0.004*16.2928493352156     

    # apply the strain: directions 1-3 stretch an edge, 4-6 add a tilt
    if "${dir} == 1" then "change_box all x  delta 0 ${d} remap units box"
change_box all x  delta 0 ${d} remap units box
change_box all x  delta 0 -0.0651713973408624 remap units box
Changing box ...
  triclinic box = (-0.0014246676 -0.0014246676 -0.0014246676) to (16.226253 16.291425 16.291425) with tilt (0 0 0)
    if "${dir} == 2" then "change_box all y  delta 0 ${d} remap units box"
    if "${dir} == 3" then "change_box all z  delta 0 ${d} remap units box"
    if "${dir} == 4" then "change_box all yz delta ${d}   remap units box"
    if "${dir} == 5" then "change_box all xz delta ${d}   remap units box"
    if "${dir} == 6" then "change_box all xy delta ${d}   remap units box"

    # relax the internal coordinates only (box shape stays fixed)
    minimize 0.0 1.0e-12 1000 10000
Neighbor list info ...
  update: every = 1 steps, delay = 0 steps, check = yes
  max neighbors/atom: 2000, page size: 100000
  master list distance cutoff = 5.77118
  ghost atom cutoff = 5.77118
  binsize = 2.88559, bins = 6 6 6
  1 neighbor lists, perpetual/occasional/extra = 1 0 0
  (1) pair sw, perpetual
      attributes: full, newton on
      pair build: full/bin/atomonly
      stencil: full/bin/3d
      bin: standard
Per MPI rank memory allocation (min/avg/max) = 4.214 | 4.214 | 4.214 Mbytes
   Step          Temp          E_pair         E_mol          TotEng         Press     
         0   0             -936.6728       0             -936.6728       4085.9087    
         1   0             -936.6728       0             -936.6728       4085.9087    
Loop time of 0.000185925 on 1 procs for 1 steps with 216 atoms

100.6% CPU use with 1 MPI tasks x 1 OpenMP threads

Minimization stats:
  Stopping criterion = force tolerance
  Energy initial, next-to-last, final = 
     -936.672801888547  -936.672801888547  -936.672801888547
  Force two-norm initial, final = 2.4119879e-12 6.6278508e-13
  Force max component initial, final = 3.8999901e-13 7.2964204e-14
  Final line search alpha, max atom move = 1 7.2964204e-14
  Iterations, force evaluations = 1 2

MPI task timing breakdown:
Section |  min time  |  avg time  |  max time  |%varavg| %total
---------------------------------------------------------------
Pair    | 0.00017321 | 0.00017321 | 0.00017321 |   0.0 | 93.16
Neigh   | 0          | 0          | 0          |   0.0 |  0.00
Comm    | 5.599e-06  | 5.599e-06  | 5.599e-06  |   0.0 |  3.01
Output  | 0          | 0          | 0          |   0.0 |  0.00
Modify  | 0          | 0          | 0          |   0.0 |  0.00
Other   |            | 7.116e-06  |            |       |  3.83

Nlocal:            216 ave         216 max         216 min
Histogram: 1 0 0 0 0 0 0 0 0 0
Nghost:            950 ave         950 max         950 min
Histogram: 1 0 0 0 0 0 0 0 0 0
Neighs:              0 ave           0 max           0 min
Histogram: 1 0 0 0 0 0 0 0 0 0
FullNghs:         7344 ave        7344 max        7344 min
Histogram: 1 0 0 0 0 0 0 0 0 0

Total # of neighbors = 7344
Ave neighs/atom = 34
Neighbor list builds = 0
Dangerous builds = 0

    print "- {dir: ${dir}, eps: ${eps}, pxx: $(pxx:%.6f), pyy: $(pyy:%.6f),         pzz: $(pzz:%.6f), pyz: $(pyz:%.6f), pxz: $(pxz:%.6f),         pxy: $(pxy:%.6f)}" append scan.yaml screen no

    variable len0 delete
    variable d delete
  next eps
  jump SELF epsloop

    # reload the zero-stress reference; clear resets units, so set them again
    clear
OMP_NUM_THREADS environment is not set. Defaulting to 1 thread.
  using 1 OpenMP thread(s) per MPI task
    units metal
    read_data Si_equil.data
Reading data file ...
  triclinic box = (-0.0014246676 -0.0014246676 -0.0014246676) to (16.291425 16.291425 16.291425) with tilt (0 0 0)
  1 by 1 by 1 MPI processor grid
  reading atoms ...
  216 atoms
  reading velocities ...
  216 velocities
  read_data CPU = 0.000 seconds
    pair_style sw
    pair_coeff * * Si.sw Si
Reading sw potential file Si.sw with DATE: 2007-06-11
    min_style cg
    min_modify dmax 0.01 line quadratic

    # reference length for this direction (normal: own axis; shear: see below)
    if "${dir} == 1" then "variable len0 equal ${lx0}"
variable len0 equal ${lx0}
variable len0 equal 16.2928493352156
    if "${dir} == 2" then "variable len0 equal ${ly0}"
    if "${dir} == 3" then "variable len0 equal ${lz0}"
    if "${dir} == 4" then "variable len0 equal ${lz0}"
    if "${dir} == 5" then "variable len0 equal ${lz0}"
    if "${dir} == 6" then "variable len0 equal ${ly0}"
    variable d equal ${eps}*${len0}     # box change in distance units
    variable d equal -0.002*${len0}     
    variable d equal -0.002*16.2928493352156     

    # apply the strain: directions 1-3 stretch an edge, 4-6 add a tilt
    if "${dir} == 1" then "change_box all x  delta 0 ${d} remap units box"
change_box all x  delta 0 ${d} remap units box
change_box all x  delta 0 -0.0325856986704312 remap units box
Changing box ...
  triclinic box = (-0.0014246676 -0.0014246676 -0.0014246676) to (16.258839 16.291425 16.291425) with tilt (0 0 0)
    if "${dir} == 2" then "change_box all y  delta 0 ${d} remap units box"
    if "${dir} == 3" then "change_box all z  delta 0 ${d} remap units box"
    if "${dir} == 4" then "change_box all yz delta ${d}   remap units box"
    if "${dir} == 5" then "change_box all xz delta ${d}   remap units box"
    if "${dir} == 6" then "change_box all xy delta ${d}   remap units box"

    # relax the internal coordinates only (box shape stays fixed)
    minimize 0.0 1.0e-12 1000 10000
Neighbor list info ...
  update: every = 1 steps, delay = 0 steps, check = yes
  max neighbors/atom: 2000, page size: 100000
  master list distance cutoff = 5.77118
  ghost atom cutoff = 5.77118
  binsize = 2.88559, bins = 6 6 6
  1 neighbor lists, perpetual/occasional/extra = 1 0 0
  (1) pair sw, perpetual
      attributes: full, newton on
      pair build: full/bin/atomonly
      stencil: full/bin/3d
      bin: standard
Per MPI rank memory allocation (min/avg/max) = 4.214 | 4.214 | 4.214 Mbytes
   Step          Temp          E_pair         E_mol          TotEng         Press     
         0   0             -936.69741      0             -936.69741      2035.6896    
         1   0             -936.69741      0             -936.69741      2035.6896    
Loop time of 0.000183811 on 1 procs for 1 steps with 216 atoms

100.1% CPU use with 1 MPI tasks x 1 OpenMP threads

Minimization stats:
  Stopping criterion = force tolerance
  Energy initial, next-to-last, final = 
     -936.697412535992  -936.697412535992  -936.697412535992
  Force two-norm initial, final = 2.3926711e-12 6.9904007e-13
  Force max component initial, final = 3.8586999e-13 7.5736943e-14
  Final line search alpha, max atom move = 1 7.5736943e-14
  Iterations, force evaluations = 1 2

MPI task timing breakdown:
Section |  min time  |  avg time  |  max time  |%varavg| %total
---------------------------------------------------------------
Pair    | 0.00017127 | 0.00017127 | 0.00017127 |   0.0 | 93.18
Neigh   | 0          | 0          | 0          |   0.0 |  0.00
Comm    | 5.401e-06  | 5.401e-06  | 5.401e-06  |   0.0 |  2.94
Output  | 0          | 0          | 0          |   0.0 |  0.00
Modify  | 0          | 0          | 0          |   0.0 |  0.00
Other   |            | 7.142e-06  |            |       |  3.89

Nlocal:            216 ave         216 max         216 min
Histogram: 1 0 0 0 0 0 0 0 0 0
Nghost:            950 ave         950 max         950 min
Histogram: 1 0 0 0 0 0 0 0 0 0
Neighs:              0 ave           0 max           0 min
Histogram: 1 0 0 0 0 0 0 0 0 0
FullNghs:         7344 ave        7344 max        7344 min
Histogram: 1 0 0 0 0 0 0 0 0 0

Total # of neighbors = 7344
Ave neighs/atom = 34
Neighbor list builds = 0
Dangerous builds = 0

    print "- {dir: ${dir}, eps: ${eps}, pxx: $(pxx:%.6f), pyy: $(pyy:%.6f),         pzz: $(pzz:%.6f), pyz: $(pyz:%.6f), pxz: $(pxz:%.6f),         pxy: $(pxy:%.6f)}" append scan.yaml screen no

    variable len0 delete
    variable d delete
  next eps
  jump SELF epsloop

    # reload the zero-stress reference; clear resets units, so set them again
    clear
OMP_NUM_THREADS environment is not set. Defaulting to 1 thread.
  using 1 OpenMP thread(s) per MPI task
    units metal
    read_data Si_equil.data
Reading data file ...
  triclinic box = (-0.0014246676 -0.0014246676 -0.0014246676) to (16.291425 16.291425 16.291425) with tilt (0 0 0)
  1 by 1 by 1 MPI processor grid
  reading atoms ...
  216 atoms
  reading velocities ...
  216 velocities
  read_data CPU = 0.000 seconds
    pair_style sw
    pair_coeff * * Si.sw Si
Reading sw potential file Si.sw with DATE: 2007-06-11
    min_style cg
    min_modify dmax 0.01 line quadratic

    # reference length for this direction (normal: own axis; shear: see below)
    if "${dir} == 1" then "variable len0 equal ${lx0}"
variable len0 equal ${lx0}
variable len0 equal 16.2928493352156
    if "${dir} == 2" then "variable len0 equal ${ly0}"
    if "${dir} == 3" then "variable len0 equal ${lz0}"
    if "${dir} == 4" then "variable len0 equal ${lz0}"
    if "${dir} == 5" then "variable len0 equal ${lz0}"
    if "${dir} == 6" then "variable len0 equal ${ly0}"
    variable d equal ${eps}*${len0}     # box change in distance units
    variable d equal 0.002*${len0}     
    variable d equal 0.002*16.2928493352156     

    # apply the strain: directions 1-3 stretch an edge, 4-6 add a tilt
    if "${dir} == 1" then "change_box all x  delta 0 ${d} remap units box"
change_box all x  delta 0 ${d} remap units box
change_box all x  delta 0 0.0325856986704312 remap units box
Changing box ...
  triclinic box = (-0.0014246676 -0.0014246676 -0.0014246676) to (16.32401 16.291425 16.291425) with tilt (0 0 0)
    if "${dir} == 2" then "change_box all y  delta 0 ${d} remap units box"
    if "${dir} == 3" then "change_box all z  delta 0 ${d} remap units box"
    if "${dir} == 4" then "change_box all yz delta ${d}   remap units box"
    if "${dir} == 5" then "change_box all xz delta ${d}   remap units box"
    if "${dir} == 6" then "change_box all xy delta ${d}   remap units box"

    # relax the internal coordinates only (box shape stays fixed)
    minimize 0.0 1.0e-12 1000 10000
Neighbor list info ...
  update: every = 1 steps, delay = 0 steps, check = yes
  max neighbors/atom: 2000, page size: 100000
  master list distance cutoff = 5.77118
  ghost atom cutoff = 5.77118
  binsize = 2.88559, bins = 6 6 6
  1 neighbor lists, perpetual/occasional/extra = 1 0 0
  (1) pair sw, perpetual
      attributes: full, newton on
      pair build: full/bin/atomonly
      stencil: full/bin/3d
      bin: standard
Per MPI rank memory allocation (min/avg/max) = 4.214 | 4.214 | 4.214 Mbytes
   Step          Temp          E_pair         E_mol          TotEng         Press     
         0   0             -936.69744      0             -936.69744     -2021.2584    
         1   0             -936.69744      0             -936.69744     -2021.2584    
Loop time of 0.000184503 on 1 procs for 1 steps with 216 atoms

99.7% CPU use with 1 MPI tasks x 1 OpenMP threads

Minimization stats:
  Stopping criterion = force tolerance
  Energy initial, next-to-last, final = 
      -936.69743671873   -936.69743671873   -936.69743671873
  Force two-norm initial, final = 2.3867373e-12 6.5710342e-13
  Force max component initial, final = 3.8712631e-13 8.0570967e-14
  Final line search alpha, max atom move = 1 8.0570967e-14
  Iterations, force evaluations = 1 2

MPI task timing breakdown:
Section |  min time  |  avg time  |  max time  |%varavg| %total
---------------------------------------------------------------
Pair    | 0.00017221 | 0.00017221 | 0.00017221 |   0.0 | 93.34
Neigh   | 0          | 0          | 0          |   0.0 |  0.00
Comm    | 5.36e-06   | 5.36e-06   | 5.36e-06   |   0.0 |  2.91
Output  | 0          | 0          | 0          |   0.0 |  0.00
Modify  | 0          | 0          | 0          |   0.0 |  0.00
Other   |            | 6.934e-06  |            |       |  3.76

Nlocal:            216 ave         216 max         216 min
Histogram: 1 0 0 0 0 0 0 0 0 0
Nghost:            950 ave         950 max         950 min
Histogram: 1 0 0 0 0 0 0 0 0 0
Neighs:              0 ave           0 max           0 min
Histogram: 1 0 0 0 0 0 0 0 0 0
FullNghs:         7344 ave        7344 max        7344 min
Histogram: 1 0 0 0 0 0 0 0 0 0

Total # of neighbors = 7344
Ave neighs/atom = 34
Neighbor list builds = 0
Dangerous builds = 0

    print "- {dir: ${dir}, eps: ${eps}, pxx: $(pxx:%.6f), pyy: $(pyy:%.6f),         pzz: $(pzz:%.6f), pyz: $(pyz:%.6f), pxz: $(pxz:%.6f),         pxy: $(pxy:%.6f)}" append scan.yaml screen no

    variable len0 delete
    variable d delete
  next eps
  jump SELF epsloop

    # reload the zero-stress reference; clear resets units, so set them again
    clear
OMP_NUM_THREADS environment is not set. Defaulting to 1 thread.
  using 1 OpenMP thread(s) per MPI task
    units metal
    read_data Si_equil.data
Reading data file ...
  triclinic box = (-0.0014246676 -0.0014246676 -0.0014246676) to (16.291425 16.291425 16.291425) with tilt (0 0 0)
  1 by 1 by 1 MPI processor grid
  reading atoms ...
  216 atoms
  reading velocities ...
  216 velocities
  read_data CPU = 0.001 seconds
    pair_style sw
    pair_coeff * * Si.sw Si
Reading sw potential file Si.sw with DATE: 2007-06-11
    min_style cg
    min_modify dmax 0.01 line quadratic

    # reference length for this direction (normal: own axis; shear: see below)
    if "${dir} == 1" then "variable len0 equal ${lx0}"
variable len0 equal ${lx0}
variable len0 equal 16.2928493352156
    if "${dir} == 2" then "variable len0 equal ${ly0}"
    if "${dir} == 3" then "variable len0 equal ${lz0}"
    if "${dir} == 4" then "variable len0 equal ${lz0}"
    if "${dir} == 5" then "variable len0 equal ${lz0}"
    if "${dir} == 6" then "variable len0 equal ${ly0}"
    variable d equal ${eps}*${len0}     # box change in distance units
    variable d equal 0.004*${len0}     
    variable d equal 0.004*16.2928493352156     

    # apply the strain: directions 1-3 stretch an edge, 4-6 add a tilt
    if "${dir} == 1" then "change_box all x  delta 0 ${d} remap units box"
change_box all x  delta 0 ${d} remap units box
change_box all x  delta 0 0.0651713973408624 remap units box
Changing box ...
  triclinic box = (-0.0014246676 -0.0014246676 -0.0014246676) to (16.356596 16.291425 16.291425) with tilt (0 0 0)
    if "${dir} == 2" then "change_box all y  delta 0 ${d} remap units box"
    if "${dir} == 3" then "change_box all z  delta 0 ${d} remap units box"
    if "${dir} == 4" then "change_box all yz delta ${d}   remap units box"
    if "${dir} == 5" then "change_box all xz delta ${d}   remap units box"
    if "${dir} == 6" then "change_box all xy delta ${d}   remap units box"

    # relax the internal coordinates only (box shape stays fixed)
    minimize 0.0 1.0e-12 1000 10000
Neighbor list info ...
  update: every = 1 steps, delay = 0 steps, check = yes
  max neighbors/atom: 2000, page size: 100000
  master list distance cutoff = 5.77118
  ghost atom cutoff = 5.77118
  binsize = 2.88559, bins = 6 6 6
  1 neighbor lists, perpetual/occasional/extra = 1 0 0
  (1) pair sw, perpetual
      attributes: full, newton on
      pair build: full/bin/atomonly
      stencil: full/bin/3d
      bin: standard
Per MPI rank memory allocation (min/avg/max) = 4.214 | 4.214 | 4.214 Mbytes
   Step          Temp          E_pair         E_mol          TotEng         Press     
         0   0             -936.673        0             -936.673       -4028.1834    
         1   0             -936.673        0             -936.673       -4028.1834    
Loop time of 0.000189483 on 1 procs for 1 steps with 216 atoms

98.2% CPU use with 1 MPI tasks x 1 OpenMP threads

Minimization stats:
  Stopping criterion = force tolerance
  Energy initial, next-to-last, final = 
     -936.672995347692  -936.672995347692  -936.672995347692
  Force two-norm initial, final = 2.6034267e-12 7.1269024e-13
  Force max component initial, final = 3.8014221e-13 7.9582174e-14
  Final line search alpha, max atom move = 1 7.9582174e-14
  Iterations, force evaluations = 1 2

MPI task timing breakdown:
Section |  min time  |  avg time  |  max time  |%varavg| %total
---------------------------------------------------------------
Pair    | 0.00017583 | 0.00017583 | 0.00017583 |   0.0 | 92.79
Neigh   | 0          | 0          | 0          |   0.0 |  0.00
Comm    | 6.231e-06  | 6.231e-06  | 6.231e-06  |   0.0 |  3.29
Output  | 0          | 0          | 0          |   0.0 |  0.00
Modify  | 0          | 0          | 0          |   0.0 |  0.00
Other   |            | 7.426e-06  |            |       |  3.92

Nlocal:            216 ave         216 max         216 min
Histogram: 1 0 0 0 0 0 0 0 0 0
Nghost:            950 ave         950 max         950 min
Histogram: 1 0 0 0 0 0 0 0 0 0
Neighs:              0 ave           0 max           0 min
Histogram: 1 0 0 0 0 0 0 0 0 0
FullNghs:         7344 ave        7344 max        7344 min
Histogram: 1 0 0 0 0 0 0 0 0 0

Total # of neighbors = 7344
Ave neighs/atom = 34
Neighbor list builds = 0
Dangerous builds = 0

    print "- {dir: ${dir}, eps: ${eps}, pxx: $(pxx:%.6f), pyy: $(pyy:%.6f),         pzz: $(pzz:%.6f), pyz: $(pyz:%.6f), pxz: $(pxz:%.6f),         pxy: $(pxy:%.6f)}" append scan.yaml screen no

    variable len0 delete
    variable d delete
  next eps
  jump SELF epsloop

    # reload the zero-stress reference; clear resets units, so set them again
    clear
OMP_NUM_THREADS environment is not set. Defaulting to 1 thread.
  using 1 OpenMP thread(s) per MPI task
    units metal
    read_data Si_equil.data
Reading data file ...
  triclinic box = (-0.0014246676 -0.0014246676 -0.0014246676) to (16.291425 16.291425 16.291425) with tilt (0 0 0)
  1 by 1 by 1 MPI processor grid
  reading atoms ...
  216 atoms
  reading velocities ...
  216 velocities
  read_data CPU = 0.000 seconds
    pair_style sw
    pair_coeff * * Si.sw Si
Reading sw potential file Si.sw with DATE: 2007-06-11
    min_style cg
    min_modify dmax 0.01 line quadratic

    # reference length for this direction (normal: own axis; shear: see below)
    if "${dir} == 1" then "variable len0 equal ${lx0}"
variable len0 equal ${lx0}
variable len0 equal 16.2928493352156
    if "${dir} == 2" then "variable len0 equal ${ly0}"
    if "${dir} == 3" then "variable len0 equal ${lz0}"
    if "${dir} == 4" then "variable len0 equal ${lz0}"
    if "${dir} == 5" then "variable len0 equal ${lz0}"
    if "${dir} == 6" then "variable len0 equal ${ly0}"
    variable d equal ${eps}*${len0}     # box change in distance units
    variable d equal 0.006*${len0}     
    variable d equal 0.006*16.2928493352156     

    # apply the strain: directions 1-3 stretch an edge, 4-6 add a tilt
    if "${dir} == 1" then "change_box all x  delta 0 ${d} remap units box"
change_box all x  delta 0 ${d} remap units box
change_box all x  delta 0 0.0977570960112936 remap units box
Changing box ...
  triclinic box = (-0.0014246676 -0.0014246676 -0.0014246676) to (16.389182 16.291425 16.291425) with tilt (0 0 0)
    if "${dir} == 2" then "change_box all y  delta 0 ${d} remap units box"
    if "${dir} == 3" then "change_box all z  delta 0 ${d} remap units box"
    if "${dir} == 4" then "change_box all yz delta ${d}   remap units box"
    if "${dir} == 5" then "change_box all xz delta ${d}   remap units box"
    if "${dir} == 6" then "change_box all xy delta ${d}   remap units box"

    # relax the internal coordinates only (box shape stays fixed)
    minimize 0.0 1.0e-12 1000 10000
Neighbor list info ...
  update: every = 1 steps, delay = 0 steps, check = yes
  max neighbors/atom: 2000, page size: 100000
  master list distance cutoff = 5.77118
  ghost atom cutoff = 5.77118
  binsize = 2.88559, bins = 6 6 6
  1 neighbor lists, perpetual/occasional/extra = 1 0 0
  (1) pair sw, perpetual
      attributes: full, newton on
      pair build: full/bin/atomonly
      stencil: full/bin/3d
      bin: standard
Per MPI rank memory allocation (min/avg/max) = 4.214 | 4.214 | 4.214 Mbytes
   Step          Temp          E_pair         E_mol          TotEng         Press     
         0   0             -936.63235      0             -936.63235     -6020.8722    
         1   0             -936.63235      0             -936.63235     -6020.8722    
Loop time of 0.000184754 on 1 procs for 1 steps with 216 atoms

100.1% CPU use with 1 MPI tasks x 1 OpenMP threads

Minimization stats:
  Stopping criterion = force tolerance
  Energy initial, next-to-last, final = 
     -936.632348574053  -936.632348574053  -936.632348574053
  Force two-norm initial, final = 2.6792243e-12 6.8537904e-13
  Force max component initial, final = 3.8200172e-13 7.8683587e-14
  Final line search alpha, max atom move = 1 7.8683587e-14
  Iterations, force evaluations = 1 2

MPI task timing breakdown:
Section |  min time  |  avg time  |  max time  |%varavg| %total
---------------------------------------------------------------
Pair    | 0.00017225 | 0.00017225 | 0.00017225 |   0.0 | 93.23
Neigh   | 0          | 0          | 0          |   0.0 |  0.00
Comm    | 5.48e-06   | 5.48e-06   | 5.48e-06   |   0.0 |  2.97
Output  | 0          | 0          | 0          |   0.0 |  0.00
Modify  | 0          | 0          | 0          |   0.0 |  0.00
Other   |            | 7.023e-06  |            |       |  3.80

Nlocal:            216 ave         216 max         216 min
Histogram: 1 0 0 0 0 0 0 0 0 0
Nghost:            950 ave         950 max         950 min
Histogram: 1 0 0 0 0 0 0 0 0 0
Neighs:              0 ave           0 max           0 min
Histogram: 1 0 0 0 0 0 0 0 0 0
FullNghs:         7344 ave        7344 max        7344 min
Histogram: 1 0 0 0 0 0 0 0 0 0

Total # of neighbors = 7344
Ave neighs/atom = 34
Neighbor list builds = 0
Dangerous builds = 0

    print "- {dir: ${dir}, eps: ${eps}, pxx: $(pxx:%.6f), pyy: $(pyy:%.6f),         pzz: $(pzz:%.6f), pyz: $(pyz:%.6f), pxz: $(pxz:%.6f),         pxy: $(pxy:%.6f)}" append scan.yaml screen no

    variable len0 delete
    variable d delete
  next eps
  jump SELF epsloop

    # reload the zero-stress reference; clear resets units, so set them again
    clear
OMP_NUM_THREADS environment is not set. Defaulting to 1 thread.
  using 1 OpenMP thread(s) per MPI task
    units metal
    read_data Si_equil.data
Reading data file ...
  triclinic box = (-0.0014246676 -0.0014246676 -0.0014246676) to (16.291425 16.291425 16.291425) with tilt (0 0 0)
  1 by 1 by 1 MPI processor grid
  reading atoms ...
  216 atoms
  reading velocities ...
  216 velocities
  read_data CPU = 0.000 seconds
    pair_style sw
    pair_coeff * * Si.sw Si
Reading sw potential file Si.sw with DATE: 2007-06-11
    min_style cg
    min_modify dmax 0.01 line quadratic

    # reference length for this direction (normal: own axis; shear: see below)
    if "${dir} == 1" then "variable len0 equal ${lx0}"
variable len0 equal ${lx0}
variable len0 equal 16.2928493352156
    if "${dir} == 2" then "variable len0 equal ${ly0}"
    if "${dir} == 3" then "variable len0 equal ${lz0}"
    if "${dir} == 4" then "variable len0 equal ${lz0}"
    if "${dir} == 5" then "variable len0 equal ${lz0}"
    if "${dir} == 6" then "variable len0 equal ${ly0}"
    variable d equal ${eps}*${len0}     # box change in distance units
    variable d equal 0.008*${len0}     
    variable d equal 0.008*16.2928493352156     

    # apply the strain: directions 1-3 stretch an edge, 4-6 add a tilt
    if "${dir} == 1" then "change_box all x  delta 0 ${d} remap units box"
change_box all x  delta 0 ${d} remap units box
change_box all x  delta 0 0.130342794681725 remap units box
Changing box ...
  triclinic box = (-0.0014246676 -0.0014246676 -0.0014246676) to (16.421767 16.291425 16.291425) with tilt (0 0 0)
    if "${dir} == 2" then "change_box all y  delta 0 ${d} remap units box"
    if "${dir} == 3" then "change_box all z  delta 0 ${d} remap units box"
    if "${dir} == 4" then "change_box all yz delta ${d}   remap units box"
    if "${dir} == 5" then "change_box all xz delta ${d}   remap units box"
    if "${dir} == 6" then "change_box all xy delta ${d}   remap units box"

    # relax the internal coordinates only (box shape stays fixed)
    minimize 0.0 1.0e-12 1000 10000
Neighbor list info ...
  update: every = 1 steps, delay = 0 steps, check = yes
  max neighbors/atom: 2000, page size: 100000
  master list distance cutoff = 5.77118
  ghost atom cutoff = 5.77118
  binsize = 2.88559, bins = 6 6 6
  1 neighbor lists, perpetual/occasional/extra = 1 0 0
  (1) pair sw, perpetual
      attributes: full, newton on
      pair build: full/bin/atomonly
      stencil: full/bin/3d
      bin: standard
Per MPI rank memory allocation (min/avg/max) = 4.214 | 4.214 | 4.214 Mbytes
   Step          Temp          E_pair         E_mol          TotEng         Press     
         0   0             -936.57557      0             -936.57557     -7999.4217    
         1   0             -936.57557      0             -936.57557     -7999.4217    
Loop time of 0.000184703 on 1 procs for 1 steps with 216 atoms

100.2% CPU use with 1 MPI tasks x 1 OpenMP threads

Minimization stats:
  Stopping criterion = force tolerance
  Energy initial, next-to-last, final = 
     -936.575569199427  -936.575569199427  -936.575569199427
  Force two-norm initial, final = 2.4753681e-12 6.2607802e-13
  Force max component initial, final = 3.8134209e-13 6.9263172e-14
  Final line search alpha, max atom move = 1 6.9263172e-14
  Iterations, force evaluations = 1 2

MPI task timing breakdown:
Section |  min time  |  avg time  |  max time  |%varavg| %total
---------------------------------------------------------------
Pair    | 0.0001723  | 0.0001723  | 0.0001723  |   0.0 | 93.28
Neigh   | 0          | 0          | 0          |   0.0 |  0.00
Comm    | 5.45e-06   | 5.45e-06   | 5.45e-06   |   0.0 |  2.95
Output  | 0          | 0          | 0          |   0.0 |  0.00
Modify  | 0          | 0          | 0          |   0.0 |  0.00
Other   |            | 6.955e-06  |            |       |  3.77

Nlocal:            216 ave         216 max         216 min
Histogram: 1 0 0 0 0 0 0 0 0 0
Nghost:            950 ave         950 max         950 min
Histogram: 1 0 0 0 0 0 0 0 0 0
Neighs:              0 ave           0 max           0 min
Histogram: 1 0 0 0 0 0 0 0 0 0
FullNghs:         7344 ave        7344 max        7344 min
Histogram: 1 0 0 0 0 0 0 0 0 0

Total # of neighbors = 7344
Ave neighs/atom = 34
Neighbor list builds = 0
Dangerous builds = 0

    print "- {dir: ${dir}, eps: ${eps}, pxx: $(pxx:%.6f), pyy: $(pyy:%.6f),         pzz: $(pzz:%.6f), pyz: $(pyz:%.6f), pxz: $(pxz:%.6f),         pxy: $(pxy:%.6f)}" append scan.yaml screen no

    variable len0 delete
    variable d delete
  next eps
  jump SELF epsloop

next dir
jump SELF dirloop

  # (re)create the strain list at the start of each direction
  variable eps index -0.008 -0.006 -0.004 -0.002 0.002 0.004 0.006 0.008
  label epsloop

    # reload the zero-stress reference; clear resets units, so set them again
    clear
OMP_NUM_THREADS environment is not set. Defaulting to 1 thread.
  using 1 OpenMP thread(s) per MPI task
    units metal
    read_data Si_equil.data
Reading data file ...
  triclinic box = (-0.0014246676 -0.0014246676 -0.0014246676) to (16.291425 16.291425 16.291425) with tilt (0 0 0)
  1 by 1 by 1 MPI processor grid
  reading atoms ...
  216 atoms
  reading velocities ...
  216 velocities
  read_data CPU = 0.001 seconds
    pair_style sw
    pair_coeff * * Si.sw Si
Reading sw potential file Si.sw with DATE: 2007-06-11
    min_style cg
    min_modify dmax 0.01 line quadratic

    # reference length for this direction (normal: own axis; shear: see below)
    if "${dir} == 1" then "variable len0 equal ${lx0}"
    if "${dir} == 2" then "variable len0 equal ${ly0}"
variable len0 equal ${ly0}
variable len0 equal 16.2928493352156
    if "${dir} == 3" then "variable len0 equal ${lz0}"
    if "${dir} == 4" then "variable len0 equal ${lz0}"
    if "${dir} == 5" then "variable len0 equal ${lz0}"
    if "${dir} == 6" then "variable len0 equal ${ly0}"
    variable d equal ${eps}*${len0}     # box change in distance units
    variable d equal -0.008*${len0}     
    variable d equal -0.008*16.2928493352156     

    # apply the strain: directions 1-3 stretch an edge, 4-6 add a tilt
    if "${dir} == 1" then "change_box all x  delta 0 ${d} remap units box"
    if "${dir} == 2" then "change_box all y  delta 0 ${d} remap units box"
change_box all y  delta 0 ${d} remap units box
change_box all y  delta 0 -0.130342794681725 remap units box
Changing box ...
  triclinic box = (-0.0014246676 -0.0014246676 -0.0014246676) to (16.291425 16.161082 16.291425) with tilt (0 0 0)
    if "${dir} == 3" then "change_box all z  delta 0 ${d} remap units box"
    if "${dir} == 4" then "change_box all yz delta ${d}   remap units box"
    if "${dir} == 5" then "change_box all xz delta ${d}   remap units box"
    if "${dir} == 6" then "change_box all xy delta ${d}   remap units box"

    # relax the internal coordinates only (box shape stays fixed)
    minimize 0.0 1.0e-12 1000 10000
Neighbor list info ...
  update: every = 1 steps, delay = 0 steps, check = yes
  max neighbors/atom: 2000, page size: 100000
  master list distance cutoff = 5.77118
  ghost atom cutoff = 5.77118
  binsize = 2.88559, bins = 6 6 6
  1 neighbor lists, perpetual/occasional/extra = 1 0 0
  (1) pair sw, perpetual
      attributes: full, newton on
      pair build: full/bin/atomonly
      stencil: full/bin/3d
      bin: standard
Per MPI rank memory allocation (min/avg/max) = 4.214 | 4.214 | 4.214 Mbytes
   Step          Temp          E_pair         E_mol          TotEng         Press     
         0   0             -936.57402      0             -936.57402      8230.3316    
         1   0             -936.57402      0             -936.57402      8230.3316    
Loop time of 0.000183872 on 1 procs for 1 steps with 216 atoms

100.1% CPU use with 1 MPI tasks x 1 OpenMP threads

Minimization stats:
  Stopping criterion = force tolerance
  Energy initial, next-to-last, final = 
     -936.574021614385  -936.574021614385  -936.574021614385
  Force two-norm initial, final = 2.5418759e-12 7.167524e-13
  Force max component initial, final = 3.8627565e-13 7.8846218e-14
  Final line search alpha, max atom move = 1 7.8846218e-14
  Iterations, force evaluations = 1 2

MPI task timing breakdown:
Section |  min time  |  avg time  |  max time  |%varavg| %total
---------------------------------------------------------------
Pair    | 0.00017101 | 0.00017101 | 0.00017101 |   0.0 | 93.00
Neigh   | 0          | 0          | 0          |   0.0 |  0.00
Comm    | 5.872e-06  | 5.872e-06  | 5.872e-06  |   0.0 |  3.19
Output  | 0          | 0          | 0          |   0.0 |  0.00
Modify  | 0          | 0          | 0          |   0.0 |  0.00
Other   |            | 6.992e-06  |            |       |  3.80

Nlocal:            216 ave         216 max         216 min
Histogram: 1 0 0 0 0 0 0 0 0 0
Nghost:            950 ave         950 max         950 min
Histogram: 1 0 0 0 0 0 0 0 0 0
Neighs:              0 ave           0 max           0 min
Histogram: 1 0 0 0 0 0 0 0 0 0
FullNghs:         7344 ave        7344 max        7344 min
Histogram: 1 0 0 0 0 0 0 0 0 0

Total # of neighbors = 7344
Ave neighs/atom = 34
Neighbor list builds = 0
Dangerous builds = 0

    print "- {dir: ${dir}, eps: ${eps}, pxx: $(pxx:%.6f), pyy: $(pyy:%.6f),         pzz: $(pzz:%.6f), pyz: $(pyz:%.6f), pxz: $(pxz:%.6f),         pxy: $(pxy:%.6f)}" append scan.yaml screen no

    variable len0 delete
    variable d delete
  next eps
  jump SELF epsloop

    # reload the zero-stress reference; clear resets units, so set them again
    clear
OMP_NUM_THREADS environment is not set. Defaulting to 1 thread.
  using 1 OpenMP thread(s) per MPI task
    units metal
    read_data Si_equil.data
Reading data file ...
  triclinic box = (-0.0014246676 -0.0014246676 -0.0014246676) to (16.291425 16.291425 16.291425) with tilt (0 0 0)
  1 by 1 by 1 MPI processor grid
  reading atoms ...
  216 atoms
  reading velocities ...
  216 velocities
  read_data CPU = 0.001 seconds
    pair_style sw
    pair_coeff * * Si.sw Si
Reading sw potential file Si.sw with DATE: 2007-06-11
    min_style cg
    min_modify dmax 0.01 line quadratic

    # reference length for this direction (normal: own axis; shear: see below)
    if "${dir} == 1" then "variable len0 equal ${lx0}"
    if "${dir} == 2" then "variable len0 equal ${ly0}"
variable len0 equal ${ly0}
variable len0 equal 16.2928493352156
    if "${dir} == 3" then "variable len0 equal ${lz0}"
    if "${dir} == 4" then "variable len0 equal ${lz0}"
    if "${dir} == 5" then "variable len0 equal ${lz0}"
    if "${dir} == 6" then "variable len0 equal ${ly0}"
    variable d equal ${eps}*${len0}     # box change in distance units
    variable d equal -0.006*${len0}     
    variable d equal -0.006*16.2928493352156     

    # apply the strain: directions 1-3 stretch an edge, 4-6 add a tilt
    if "${dir} == 1" then "change_box all x  delta 0 ${d} remap units box"
    if "${dir} == 2" then "change_box all y  delta 0 ${d} remap units box"
change_box all y  delta 0 ${d} remap units box
change_box all y  delta 0 -0.0977570960112936 remap units box
Changing box ...
  triclinic box = (-0.0014246676 -0.0014246676 -0.0014246676) to (16.291425 16.193668 16.291425) with tilt (0 0 0)
    if "${dir} == 3" then "change_box all z  delta 0 ${d} remap units box"
    if "${dir} == 4" then "change_box all yz delta ${d}   remap units box"
    if "${dir} == 5" then "change_box all xz delta ${d}   remap units box"
    if "${dir} == 6" then "change_box all xy delta ${d}   remap units box"

    # relax the internal coordinates only (box shape stays fixed)
    minimize 0.0 1.0e-12 1000 10000
Neighbor list info ...
  update: every = 1 steps, delay = 0 steps, check = yes
  max neighbors/atom: 2000, page size: 100000
  master list distance cutoff = 5.77118
  ghost atom cutoff = 5.77118
  binsize = 2.88559, bins = 6 6 6
  1 neighbor lists, perpetual/occasional/extra = 1 0 0
  (1) pair sw, perpetual
      attributes: full, newton on
      pair build: full/bin/atomonly
      stencil: full/bin/3d
      bin: standard
Per MPI rank memory allocation (min/avg/max) = 4.214 | 4.214 | 4.214 Mbytes
   Step          Temp          E_pair         E_mol          TotEng         Press     
         0   0             -936.6317       0             -936.6317       6150.7562    
         1   0             -936.6317       0             -936.6317       6150.7562    
Loop time of 0.000191276 on 1 procs for 1 steps with 216 atoms

97.8% CPU use with 1 MPI tasks x 1 OpenMP threads

Minimization stats:
  Stopping criterion = force tolerance
  Energy initial, next-to-last, final = 
     -936.631695664959  -936.631695664959  -936.631695664959
  Force two-norm initial, final = 2.5971733e-12 7.0242777e-13
  Force max component initial, final = 3.9405241e-13 8.2338216e-14
  Final line search alpha, max atom move = 1 8.2338216e-14
  Iterations, force evaluations = 1 2

MPI task timing breakdown:
Section |  min time  |  avg time  |  max time  |%varavg| %total
---------------------------------------------------------------
Pair    | 0.0001784  | 0.0001784  | 0.0001784  |   0.0 | 93.27
Neigh   | 0          | 0          | 0          |   0.0 |  0.00
Comm    | 5.542e-06  | 5.542e-06  | 5.542e-06  |   0.0 |  2.90
Output  | 0          | 0          | 0          |   0.0 |  0.00
Modify  | 0          | 0          | 0          |   0.0 |  0.00
Other   |            | 7.332e-06  |            |       |  3.83

Nlocal:            216 ave         216 max         216 min
Histogram: 1 0 0 0 0 0 0 0 0 0
Nghost:            950 ave         950 max         950 min
Histogram: 1 0 0 0 0 0 0 0 0 0
Neighs:              0 ave           0 max           0 min
Histogram: 1 0 0 0 0 0 0 0 0 0
FullNghs:         7344 ave        7344 max        7344 min
Histogram: 1 0 0 0 0 0 0 0 0 0

Total # of neighbors = 7344
Ave neighs/atom = 34
Neighbor list builds = 0
Dangerous builds = 0

    print "- {dir: ${dir}, eps: ${eps}, pxx: $(pxx:%.6f), pyy: $(pyy:%.6f),         pzz: $(pzz:%.6f), pyz: $(pyz:%.6f), pxz: $(pxz:%.6f),         pxy: $(pxy:%.6f)}" append scan.yaml screen no

    variable len0 delete
    variable d delete
  next eps
  jump SELF epsloop

    # reload the zero-stress reference; clear resets units, so set them again
    clear
OMP_NUM_THREADS environment is not set. Defaulting to 1 thread.
  using 1 OpenMP thread(s) per MPI task
    units metal
    read_data Si_equil.data
Reading data file ...
  triclinic box = (-0.0014246676 -0.0014246676 -0.0014246676) to (16.291425 16.291425 16.291425) with tilt (0 0 0)
  1 by 1 by 1 MPI processor grid
  reading atoms ...
  216 atoms
  reading velocities ...
  216 velocities
  read_data CPU = 0.000 seconds
    pair_style sw
    pair_coeff * * Si.sw Si
Reading sw potential file Si.sw with DATE: 2007-06-11
    min_style cg
    min_modify dmax 0.01 line quadratic

    # reference length for this direction (normal: own axis; shear: see below)
    if "${dir} == 1" then "variable len0 equal ${lx0}"
    if "${dir} == 2" then "variable len0 equal ${ly0}"
variable len0 equal ${ly0}
variable len0 equal 16.2928493352156
    if "${dir} == 3" then "variable len0 equal ${lz0}"
    if "${dir} == 4" then "variable len0 equal ${lz0}"
    if "${dir} == 5" then "variable len0 equal ${lz0}"
    if "${dir} == 6" then "variable len0 equal ${ly0}"
    variable d equal ${eps}*${len0}     # box change in distance units
    variable d equal -0.004*${len0}     
    variable d equal -0.004*16.2928493352156     

    # apply the strain: directions 1-3 stretch an edge, 4-6 add a tilt
    if "${dir} == 1" then "change_box all x  delta 0 ${d} remap units box"
    if "${dir} == 2" then "change_box all y  delta 0 ${d} remap units box"
change_box all y  delta 0 ${d} remap units box
change_box all y  delta 0 -0.0651713973408624 remap units box
Changing box ...
  triclinic box = (-0.0014246676 -0.0014246676 -0.0014246676) to (16.291425 16.226253 16.291425) with tilt (0 0 0)
    if "${dir} == 3" then "change_box all z  delta 0 ${d} remap units box"
    if "${dir} == 4" then "change_box all yz delta ${d}   remap units box"
    if "${dir} == 5" then "change_box all xz delta ${d}   remap units box"
    if "${dir} == 6" then "change_box all xy delta ${d}   remap units box"

    # relax the internal coordinates only (box shape stays fixed)
    minimize 0.0 1.0e-12 1000 10000
Neighbor list info ...
  update: every = 1 steps, delay = 0 steps, check = yes
  max neighbors/atom: 2000, page size: 100000
  master list distance cutoff = 5.77118
  ghost atom cutoff = 5.77118
  binsize = 2.88559, bins = 6 6 6
  1 neighbor lists, perpetual/occasional/extra = 1 0 0
  (1) pair sw, perpetual
      attributes: full, newton on
      pair build: full/bin/atomonly
      stencil: full/bin/3d
      bin: standard
Per MPI rank memory allocation (min/avg/max) = 4.214 | 4.214 | 4.214 Mbytes
   Step          Temp          E_pair         E_mol          TotEng         Press     
         0   0             -936.6728       0             -936.6728       4085.9087    
         1   0             -936.6728       0             -936.6728       4085.9087    
Loop time of 0.000184904 on 1 procs for 1 steps with 216 atoms

100.1% CPU use with 1 MPI tasks x 1 OpenMP threads

Minimization stats:
  Stopping criterion = force tolerance
  Energy initial, next-to-last, final = 
     -936.672801888547  -936.672801888547  -936.672801888547
  Force two-norm initial, final = 2.4472618e-12 7.031541e-13
  Force max component initial, final = 3.8379955e-13 7.8409067e-14
  Final line search alpha, max atom move = 1 7.8409067e-14
  Iterations, force evaluations = 1 2

MPI task timing breakdown:
Section |  min time  |  avg time  |  max time  |%varavg| %total
---------------------------------------------------------------
Pair    | 0.00017256 | 0.00017256 | 0.00017256 |   0.0 | 93.32
Neigh   | 0          | 0          | 0          |   0.0 |  0.00
Comm    | 5.39e-06   | 5.39e-06   | 5.39e-06   |   0.0 |  2.92
Output  | 0          | 0          | 0          |   0.0 |  0.00
Modify  | 0          | 0          | 0          |   0.0 |  0.00
Other   |            | 6.955e-06  |            |       |  3.76

Nlocal:            216 ave         216 max         216 min
Histogram: 1 0 0 0 0 0 0 0 0 0
Nghost:            950 ave         950 max         950 min
Histogram: 1 0 0 0 0 0 0 0 0 0
Neighs:              0 ave           0 max           0 min
Histogram: 1 0 0 0 0 0 0 0 0 0
FullNghs:         7344 ave        7344 max        7344 min
Histogram: 1 0 0 0 0 0 0 0 0 0

Total # of neighbors = 7344
Ave neighs/atom = 34
Neighbor list builds = 0
Dangerous builds = 0

    print "- {dir: ${dir}, eps: ${eps}, pxx: $(pxx:%.6f), pyy: $(pyy:%.6f),         pzz: $(pzz:%.6f), pyz: $(pyz:%.6f), pxz: $(pxz:%.6f),         pxy: $(pxy:%.6f)}" append scan.yaml screen no

    variable len0 delete
    variable d delete
  next eps
  jump SELF epsloop

    # reload the zero-stress reference; clear resets units, so set them again
    clear
OMP_NUM_THREADS environment is not set. Defaulting to 1 thread.
  using 1 OpenMP thread(s) per MPI task
    units metal
    read_data Si_equil.data
Reading data file ...
  triclinic box = (-0.0014246676 -0.0014246676 -0.0014246676) to (16.291425 16.291425 16.291425) with tilt (0 0 0)
  1 by 1 by 1 MPI processor grid
  reading atoms ...
  216 atoms
  reading velocities ...
  216 velocities
  read_data CPU = 0.001 seconds
    pair_style sw
    pair_coeff * * Si.sw Si
Reading sw potential file Si.sw with DATE: 2007-06-11
    min_style cg
    min_modify dmax 0.01 line quadratic

    # reference length for this direction (normal: own axis; shear: see below)
    if "${dir} == 1" then "variable len0 equal ${lx0}"
    if "${dir} == 2" then "variable len0 equal ${ly0}"
variable len0 equal ${ly0}
variable len0 equal 16.2928493352156
    if "${dir} == 3" then "variable len0 equal ${lz0}"
    if "${dir} == 4" then "variable len0 equal ${lz0}"
    if "${dir} == 5" then "variable len0 equal ${lz0}"
    if "${dir} == 6" then "variable len0 equal ${ly0}"
    variable d equal ${eps}*${len0}     # box change in distance units
    variable d equal -0.002*${len0}     
    variable d equal -0.002*16.2928493352156     

    # apply the strain: directions 1-3 stretch an edge, 4-6 add a tilt
    if "${dir} == 1" then "change_box all x  delta 0 ${d} remap units box"
    if "${dir} == 2" then "change_box all y  delta 0 ${d} remap units box"
change_box all y  delta 0 ${d} remap units box
change_box all y  delta 0 -0.0325856986704312 remap units box
Changing box ...
  triclinic box = (-0.0014246676 -0.0014246676 -0.0014246676) to (16.291425 16.258839 16.291425) with tilt (0 0 0)
    if "${dir} == 3" then "change_box all z  delta 0 ${d} remap units box"
    if "${dir} == 4" then "change_box all yz delta ${d}   remap units box"
    if "${dir} == 5" then "change_box all xz delta ${d}   remap units box"
    if "${dir} == 6" then "change_box all xy delta ${d}   remap units box"

    # relax the internal coordinates only (box shape stays fixed)
    minimize 0.0 1.0e-12 1000 10000
Neighbor list info ...
  update: every = 1 steps, delay = 0 steps, check = yes
  max neighbors/atom: 2000, page size: 100000
  master list distance cutoff = 5.77118
  ghost atom cutoff = 5.77118
  binsize = 2.88559, bins = 6 6 6
  1 neighbor lists, perpetual/occasional/extra = 1 0 0
  (1) pair sw, perpetual
      attributes: full, newton on
      pair build: full/bin/atomonly
      stencil: full/bin/3d
      bin: standard
Per MPI rank memory allocation (min/avg/max) = 4.214 | 4.214 | 4.214 Mbytes
   Step          Temp          E_pair         E_mol          TotEng         Press     
         0   0             -936.69741      0             -936.69741      2035.6896    
         1   0             -936.69741      0             -936.69741      2035.6896    
Loop time of 0.000186657 on 1 procs for 1 steps with 216 atoms

99.6% CPU use with 1 MPI tasks x 1 OpenMP threads

Minimization stats:
  Stopping criterion = force tolerance
  Energy initial, next-to-last, final = 
     -936.697412535992  -936.697412535992  -936.697412535992
  Force two-norm initial, final = 2.5264985e-12 7.1104941e-13
  Force max component initial, final = 3.8902882e-13 9.0580321e-14
  Final line search alpha, max atom move = 1 9.0580321e-14
  Iterations, force evaluations = 1 2

MPI task timing breakdown:
Section |  min time  |  avg time  |  max time  |%varavg| %total
---------------------------------------------------------------
Pair    | 0.00017431 | 0.00017431 | 0.00017431 |   0.0 | 93.39
Neigh   | 0          | 0          | 0          |   0.0 |  0.00
Comm    | 5.32e-06   | 5.32e-06   | 5.32e-06   |   0.0 |  2.85
Output  | 0          | 0          | 0          |   0.0 |  0.00
Modify  | 0          | 0          | 0          |   0.0 |  0.00
Other   |            | 7.023e-06  |            |       |  3.76

Nlocal:            216 ave         216 max         216 min
Histogram: 1 0 0 0 0 0 0 0 0 0
Nghost:            950 ave         950 max         950 min
Histogram: 1 0 0 0 0 0 0 0 0 0
Neighs:              0 ave           0 max           0 min
Histogram: 1 0 0 0 0 0 0 0 0 0
FullNghs:         7344 ave        7344 max        7344 min
Histogram: 1 0 0 0 0 0 0 0 0 0

Total # of neighbors = 7344
Ave neighs/atom = 34
Neighbor list builds = 0
Dangerous builds = 0

    print "- {dir: ${dir}, eps: ${eps}, pxx: $(pxx:%.6f), pyy: $(pyy:%.6f),         pzz: $(pzz:%.6f), pyz: $(pyz:%.6f), pxz: $(pxz:%.6f),         pxy: $(pxy:%.6f)}" append scan.yaml screen no

    variable len0 delete
    variable d delete
  next eps
  jump SELF epsloop

    # reload the zero-stress reference; clear resets units, so set them again
    clear
OMP_NUM_THREADS environment is not set. Defaulting to 1 thread.
  using 1 OpenMP thread(s) per MPI task
    units metal
    read_data Si_equil.data
Reading data file ...
  triclinic box = (-0.0014246676 -0.0014246676 -0.0014246676) to (16.291425 16.291425 16.291425) with tilt (0 0 0)
  1 by 1 by 1 MPI processor grid
  reading atoms ...
  216 atoms
  reading velocities ...
  216 velocities
  read_data CPU = 0.001 seconds
    pair_style sw
    pair_coeff * * Si.sw Si
Reading sw potential file Si.sw with DATE: 2007-06-11
    min_style cg
    min_modify dmax 0.01 line quadratic

    # reference length for this direction (normal: own axis; shear: see below)
    if "${dir} == 1" then "variable len0 equal ${lx0}"
    if "${dir} == 2" then "variable len0 equal ${ly0}"
variable len0 equal ${ly0}
variable len0 equal 16.2928493352156
    if "${dir} == 3" then "variable len0 equal ${lz0}"
    if "${dir} == 4" then "variable len0 equal ${lz0}"
    if "${dir} == 5" then "variable len0 equal ${lz0}"
    if "${dir} == 6" then "variable len0 equal ${ly0}"
    variable d equal ${eps}*${len0}     # box change in distance units
    variable d equal 0.002*${len0}     
    variable d equal 0.002*16.2928493352156     

    # apply the strain: directions 1-3 stretch an edge, 4-6 add a tilt
    if "${dir} == 1" then "change_box all x  delta 0 ${d} remap units box"
    if "${dir} == 2" then "change_box all y  delta 0 ${d} remap units box"
change_box all y  delta 0 ${d} remap units box
change_box all y  delta 0 0.0325856986704312 remap units box
Changing box ...
  triclinic box = (-0.0014246676 -0.0014246676 -0.0014246676) to (16.291425 16.32401 16.291425) with tilt (0 0 0)
    if "${dir} == 3" then "change_box all z  delta 0 ${d} remap units box"
    if "${dir} == 4" then "change_box all yz delta ${d}   remap units box"
    if "${dir} == 5" then "change_box all xz delta ${d}   remap units box"
    if "${dir} == 6" then "change_box all xy delta ${d}   remap units box"

    # relax the internal coordinates only (box shape stays fixed)
    minimize 0.0 1.0e-12 1000 10000
Neighbor list info ...
  update: every = 1 steps, delay = 0 steps, check = yes
  max neighbors/atom: 2000, page size: 100000
  master list distance cutoff = 5.77118
  ghost atom cutoff = 5.77118
  binsize = 2.88559, bins = 6 6 6
  1 neighbor lists, perpetual/occasional/extra = 1 0 0
  (1) pair sw, perpetual
      attributes: full, newton on
      pair build: full/bin/atomonly
      stencil: full/bin/3d
      bin: standard
Per MPI rank memory allocation (min/avg/max) = 4.214 | 4.214 | 4.214 Mbytes
   Step          Temp          E_pair         E_mol          TotEng         Press     
         0   0             -936.69744      0             -936.69744     -2021.2584    
         1   0             -936.69744      0             -936.69744     -2021.2584    
Loop time of 0.000183221 on 1 procs for 1 steps with 216 atoms

99.9% CPU use with 1 MPI tasks x 1 OpenMP threads

Minimization stats:
  Stopping criterion = force tolerance
  Energy initial, next-to-last, final = 
      -936.69743671873   -936.69743671873   -936.69743671873
  Force two-norm initial, final = 2.8699999e-12 7.4951336e-13
  Force max component initial, final = 3.8370392e-13 8.6897503e-14
  Final line search alpha, max atom move = 1 8.6897503e-14
  Iterations, force evaluations = 1 2

MPI task timing breakdown:
Section |  min time  |  avg time  |  max time  |%varavg| %total
---------------------------------------------------------------
Pair    | 0.00017093 | 0.00017093 | 0.00017093 |   0.0 | 93.29
Neigh   | 0          | 0          | 0          |   0.0 |  0.00
Comm    | 5.361e-06  | 5.361e-06  | 5.361e-06  |   0.0 |  2.93
Output  | 0          | 0          | 0          |   0.0 |  0.00
Modify  | 0          | 0          | 0          |   0.0 |  0.00
Other   |            | 6.934e-06  |            |       |  3.78

Nlocal:            216 ave         216 max         216 min
Histogram: 1 0 0 0 0 0 0 0 0 0
Nghost:            950 ave         950 max         950 min
Histogram: 1 0 0 0 0 0 0 0 0 0
Neighs:              0 ave           0 max           0 min
Histogram: 1 0 0 0 0 0 0 0 0 0
FullNghs:         7344 ave        7344 max        7344 min
Histogram: 1 0 0 0 0 0 0 0 0 0

Total # of neighbors = 7344
Ave neighs/atom = 34
Neighbor list builds = 0
Dangerous builds = 0

    print "- {dir: ${dir}, eps: ${eps}, pxx: $(pxx:%.6f), pyy: $(pyy:%.6f),         pzz: $(pzz:%.6f), pyz: $(pyz:%.6f), pxz: $(pxz:%.6f),         pxy: $(pxy:%.6f)}" append scan.yaml screen no

    variable len0 delete
    variable d delete
  next eps
  jump SELF epsloop

    # reload the zero-stress reference; clear resets units, so set them again
    clear
OMP_NUM_THREADS environment is not set. Defaulting to 1 thread.
  using 1 OpenMP thread(s) per MPI task
    units metal
    read_data Si_equil.data
Reading data file ...
  triclinic box = (-0.0014246676 -0.0014246676 -0.0014246676) to (16.291425 16.291425 16.291425) with tilt (0 0 0)
  1 by 1 by 1 MPI processor grid
  reading atoms ...
  216 atoms
  reading velocities ...
  216 velocities
  read_data CPU = 0.001 seconds
    pair_style sw
    pair_coeff * * Si.sw Si
Reading sw potential file Si.sw with DATE: 2007-06-11
    min_style cg
    min_modify dmax 0.01 line quadratic

    # reference length for this direction (normal: own axis; shear: see below)
    if "${dir} == 1" then "variable len0 equal ${lx0}"
    if "${dir} == 2" then "variable len0 equal ${ly0}"
variable len0 equal ${ly0}
variable len0 equal 16.2928493352156
    if "${dir} == 3" then "variable len0 equal ${lz0}"
    if "${dir} == 4" then "variable len0 equal ${lz0}"
    if "${dir} == 5" then "variable len0 equal ${lz0}"
    if "${dir} == 6" then "variable len0 equal ${ly0}"
    variable d equal ${eps}*${len0}     # box change in distance units
    variable d equal 0.004*${len0}     
    variable d equal 0.004*16.2928493352156     

    # apply the strain: directions 1-3 stretch an edge, 4-6 add a tilt
    if "${dir} == 1" then "change_box all x  delta 0 ${d} remap units box"
    if "${dir} == 2" then "change_box all y  delta 0 ${d} remap units box"
change_box all y  delta 0 ${d} remap units box
change_box all y  delta 0 0.0651713973408624 remap units box
Changing box ...
  triclinic box = (-0.0014246676 -0.0014246676 -0.0014246676) to (16.291425 16.356596 16.291425) with tilt (0 0 0)
    if "${dir} == 3" then "change_box all z  delta 0 ${d} remap units box"
    if "${dir} == 4" then "change_box all yz delta ${d}   remap units box"
    if "${dir} == 5" then "change_box all xz delta ${d}   remap units box"
    if "${dir} == 6" then "change_box all xy delta ${d}   remap units box"

    # relax the internal coordinates only (box shape stays fixed)
    minimize 0.0 1.0e-12 1000 10000
Neighbor list info ...
  update: every = 1 steps, delay = 0 steps, check = yes
  max neighbors/atom: 2000, page size: 100000
  master list distance cutoff = 5.77118
  ghost atom cutoff = 5.77118
  binsize = 2.88559, bins = 6 6 6
  1 neighbor lists, perpetual/occasional/extra = 1 0 0
  (1) pair sw, perpetual
      attributes: full, newton on
      pair build: full/bin/atomonly
      stencil: full/bin/3d
      bin: standard
Per MPI rank memory allocation (min/avg/max) = 4.214 | 4.214 | 4.214 Mbytes
   Step          Temp          E_pair         E_mol          TotEng         Press     
         0   0             -936.673        0             -936.673       -4028.1834    
         1   0             -936.673        0             -936.673       -4028.1834    
Loop time of 0.000183711 on 1 procs for 1 steps with 216 atoms

92.0% CPU use with 1 MPI tasks x 1 OpenMP threads

Minimization stats:
  Stopping criterion = force tolerance
  Energy initial, next-to-last, final = 
     -936.672995347692  -936.672995347692  -936.672995347692
  Force two-norm initial, final = 2.5030282e-12 7.0776489e-13
  Force max component initial, final = 3.8620984e-13 7.6399824e-14
  Final line search alpha, max atom move = 1 7.6399824e-14
  Iterations, force evaluations = 1 2

MPI task timing breakdown:
Section |  min time  |  avg time  |  max time  |%varavg| %total
---------------------------------------------------------------
Pair    | 0.00017126 | 0.00017126 | 0.00017126 |   0.0 | 93.22
Neigh   | 0          | 0          | 0          |   0.0 |  0.00
Comm    | 5.472e-06  | 5.472e-06  | 5.472e-06  |   0.0 |  2.98
Output  | 0          | 0          | 0          |   0.0 |  0.00
Modify  | 0          | 0          | 0          |   0.0 |  0.00
Other   |            | 6.981e-06  |            |       |  3.80

Nlocal:            216 ave         216 max         216 min
Histogram: 1 0 0 0 0 0 0 0 0 0
Nghost:            950 ave         950 max         950 min
Histogram: 1 0 0 0 0 0 0 0 0 0
Neighs:              0 ave           0 max           0 min
Histogram: 1 0 0 0 0 0 0 0 0 0
FullNghs:         7344 ave        7344 max        7344 min
Histogram: 1 0 0 0 0 0 0 0 0 0

Total # of neighbors = 7344
Ave neighs/atom = 34
Neighbor list builds = 0
Dangerous builds = 0

    print "- {dir: ${dir}, eps: ${eps}, pxx: $(pxx:%.6f), pyy: $(pyy:%.6f),         pzz: $(pzz:%.6f), pyz: $(pyz:%.6f), pxz: $(pxz:%.6f),         pxy: $(pxy:%.6f)}" append scan.yaml screen no

    variable len0 delete
    variable d delete
  next eps
  jump SELF epsloop

    # reload the zero-stress reference; clear resets units, so set them again
    clear
OMP_NUM_THREADS environment is not set. Defaulting to 1 thread.
  using 1 OpenMP thread(s) per MPI task
    units metal
    read_data Si_equil.data
Reading data file ...
  triclinic box = (-0.0014246676 -0.0014246676 -0.0014246676) to (16.291425 16.291425 16.291425) with tilt (0 0 0)
  1 by 1 by 1 MPI processor grid
  reading atoms ...
  216 atoms
  reading velocities ...
  216 velocities
  read_data CPU = 0.001 seconds
    pair_style sw
    pair_coeff * * Si.sw Si
Reading sw potential file Si.sw with DATE: 2007-06-11
    min_style cg
    min_modify dmax 0.01 line quadratic

    # reference length for this direction (normal: own axis; shear: see below)
    if "${dir} == 1" then "variable len0 equal ${lx0}"
    if "${dir} == 2" then "variable len0 equal ${ly0}"
variable len0 equal ${ly0}
variable len0 equal 16.2928493352156
    if "${dir} == 3" then "variable len0 equal ${lz0}"
    if "${dir} == 4" then "variable len0 equal ${lz0}"
    if "${dir} == 5" then "variable len0 equal ${lz0}"
    if "${dir} == 6" then "variable len0 equal ${ly0}"
    variable d equal ${eps}*${len0}     # box change in distance units
    variable d equal 0.006*${len0}     
    variable d equal 0.006*16.2928493352156     

    # apply the strain: directions 1-3 stretch an edge, 4-6 add a tilt
    if "${dir} == 1" then "change_box all x  delta 0 ${d} remap units box"
    if "${dir} == 2" then "change_box all y  delta 0 ${d} remap units box"
change_box all y  delta 0 ${d} remap units box
change_box all y  delta 0 0.0977570960112936 remap units box
Changing box ...
  triclinic box = (-0.0014246676 -0.0014246676 -0.0014246676) to (16.291425 16.389182 16.291425) with tilt (0 0 0)
    if "${dir} == 3" then "change_box all z  delta 0 ${d} remap units box"
    if "${dir} == 4" then "change_box all yz delta ${d}   remap units box"
    if "${dir} == 5" then "change_box all xz delta ${d}   remap units box"
    if "${dir} == 6" then "change_box all xy delta ${d}   remap units box"

    # relax the internal coordinates only (box shape stays fixed)
    minimize 0.0 1.0e-12 1000 10000
Neighbor list info ...
  update: every = 1 steps, delay = 0 steps, check = yes
  max neighbors/atom: 2000, page size: 100000
  master list distance cutoff = 5.77118
  ghost atom cutoff = 5.77118
  binsize = 2.88559, bins = 6 6 6
  1 neighbor lists, perpetual/occasional/extra = 1 0 0
  (1) pair sw, perpetual
      attributes: full, newton on
      pair build: full/bin/atomonly
      stencil: full/bin/3d
      bin: standard
Per MPI rank memory allocation (min/avg/max) = 4.214 | 4.214 | 4.214 Mbytes
   Step          Temp          E_pair         E_mol          TotEng         Press     
         0   0             -936.63235      0             -936.63235     -6020.8722    
         1   0             -936.63235      0             -936.63235     -6020.8722    
Loop time of 0.000183822 on 1 procs for 1 steps with 216 atoms

92.5% CPU use with 1 MPI tasks x 1 OpenMP threads

Minimization stats:
  Stopping criterion = force tolerance
  Energy initial, next-to-last, final = 
     -936.632348574053  -936.632348574053  -936.632348574053
  Force two-norm initial, final = 2.9707204e-12 7.258155e-13
  Force max component initial, final = 3.8165348e-13 7.1852246e-14
  Final line search alpha, max atom move = 1 7.1852246e-14
  Iterations, force evaluations = 1 2

MPI task timing breakdown:
Section |  min time  |  avg time  |  max time  |%varavg| %total
---------------------------------------------------------------
Pair    | 0.00017098 | 0.00017098 | 0.00017098 |   0.0 | 93.01
Neigh   | 0          | 0          | 0          |   0.0 |  0.00
Comm    | 5.69e-06   | 5.69e-06   | 5.69e-06   |   0.0 |  3.10
Output  | 0          | 0          | 0          |   0.0 |  0.00
Modify  | 0          | 0          | 0          |   0.0 |  0.00
Other   |            | 7.154e-06  |            |       |  3.89

Nlocal:            216 ave         216 max         216 min
Histogram: 1 0 0 0 0 0 0 0 0 0
Nghost:            950 ave         950 max         950 min
Histogram: 1 0 0 0 0 0 0 0 0 0
Neighs:              0 ave           0 max           0 min
Histogram: 1 0 0 0 0 0 0 0 0 0
FullNghs:         7344 ave        7344 max        7344 min
Histogram: 1 0 0 0 0 0 0 0 0 0

Total # of neighbors = 7344
Ave neighs/atom = 34
Neighbor list builds = 0
Dangerous builds = 0

    print "- {dir: ${dir}, eps: ${eps}, pxx: $(pxx:%.6f), pyy: $(pyy:%.6f),         pzz: $(pzz:%.6f), pyz: $(pyz:%.6f), pxz: $(pxz:%.6f),         pxy: $(pxy:%.6f)}" append scan.yaml screen no

    variable len0 delete
    variable d delete
  next eps
  jump SELF epsloop

    # reload the zero-stress reference; clear resets units, so set them again
    clear
OMP_NUM_THREADS environment is not set. Defaulting to 1 thread.
  using 1 OpenMP thread(s) per MPI task
    units metal
    read_data Si_equil.data
Reading data file ...
  triclinic box = (-0.0014246676 -0.0014246676 -0.0014246676) to (16.291425 16.291425 16.291425) with tilt (0 0 0)
  1 by 1 by 1 MPI processor grid
  reading atoms ...
  216 atoms
  reading velocities ...
  216 velocities
  read_data CPU = 0.001 seconds
    pair_style sw
    pair_coeff * * Si.sw Si
Reading sw potential file Si.sw with DATE: 2007-06-11
    min_style cg
    min_modify dmax 0.01 line quadratic

    # reference length for this direction (normal: own axis; shear: see below)
    if "${dir} == 1" then "variable len0 equal ${lx0}"
    if "${dir} == 2" then "variable len0 equal ${ly0}"
variable len0 equal ${ly0}
variable len0 equal 16.2928493352156
    if "${dir} == 3" then "variable len0 equal ${lz0}"
    if "${dir} == 4" then "variable len0 equal ${lz0}"
    if "${dir} == 5" then "variable len0 equal ${lz0}"
    if "${dir} == 6" then "variable len0 equal ${ly0}"
    variable d equal ${eps}*${len0}     # box change in distance units
    variable d equal 0.008*${len0}     
    variable d equal 0.008*16.2928493352156     

    # apply the strain: directions 1-3 stretch an edge, 4-6 add a tilt
    if "${dir} == 1" then "change_box all x  delta 0 ${d} remap units box"
    if "${dir} == 2" then "change_box all y  delta 0 ${d} remap units box"
change_box all y  delta 0 ${d} remap units box
change_box all y  delta 0 0.130342794681725 remap units box
Changing box ...
  triclinic box = (-0.0014246676 -0.0014246676 -0.0014246676) to (16.291425 16.421767 16.291425) with tilt (0 0 0)
    if "${dir} == 3" then "change_box all z  delta 0 ${d} remap units box"
    if "${dir} == 4" then "change_box all yz delta ${d}   remap units box"
    if "${dir} == 5" then "change_box all xz delta ${d}   remap units box"
    if "${dir} == 6" then "change_box all xy delta ${d}   remap units box"

    # relax the internal coordinates only (box shape stays fixed)
    minimize 0.0 1.0e-12 1000 10000
Neighbor list info ...
  update: every = 1 steps, delay = 0 steps, check = yes
  max neighbors/atom: 2000, page size: 100000
  master list distance cutoff = 5.77118
  ghost atom cutoff = 5.77118
  binsize = 2.88559, bins = 6 6 6
  1 neighbor lists, perpetual/occasional/extra = 1 0 0
  (1) pair sw, perpetual
      attributes: full, newton on
      pair build: full/bin/atomonly
      stencil: full/bin/3d
      bin: standard
Per MPI rank memory allocation (min/avg/max) = 4.214 | 4.214 | 4.214 Mbytes
   Step          Temp          E_pair         E_mol          TotEng         Press     
[...]
Comm    | 1.3214e-05 | 1.3214e-05 | 1.3214e-05 |   0.0 |  3.18
Output  | 0          | 0          | 0          |   0.0 |  0.00
Modify  | 0          | 0          | 0          |   0.0 |  0.00
Other   |            | 1.385e-05  |            |       |  3.33

Nlocal:            216 ave         216 max         216 min
Histogram: 1 0 0 0 0 0 0 0 0 0
Nghost:            950 ave         950 max         950 min
Histogram: 1 0 0 0 0 0 0 0 0 0
Neighs:              0 ave           0 max           0 min
Histogram: 1 0 0 0 0 0 0 0 0 0
FullNghs:         7344 ave        7344 max        7344 min
Histogram: 1 0 0 0 0 0 0 0 0 0

Total # of neighbors = 7344
Ave neighs/atom = 34
Neighbor list builds = 0
Dangerous builds = 0

    print "- {dir: ${dir}, eps: ${eps}, pxx: $(pxx:%.6f), pyy: $(pyy:%.6f),         pzz: $(pzz:%.6f), pyz: $(pyz:%.6f), pxz: $(pxz:%.6f),         pxy: $(pxy:%.6f)}" append scan.yaml screen no

    variable len0 delete
    variable d delete
  next eps
  jump SELF epsloop

    # reload the zero-stress reference; clear resets units, so set them again
    clear
OMP_NUM_THREADS environment is not set. Defaulting to 1 thread.
  using 1 OpenMP thread(s) per MPI task
    units metal
    read_data Si_equil.data
Reading data file ...
  triclinic box = (-0.0014246676 -0.0014246676 -0.0014246676) to (16.291425 16.291425 16.291425) with tilt (0 0 0)
  1 by 1 by 1 MPI processor grid
  reading atoms ...
  216 atoms
  reading velocities ...
  216 velocities
  read_data CPU = 0.001 seconds
    pair_style sw
    pair_coeff * * Si.sw Si
Reading sw potential file Si.sw with DATE: 2007-06-11
    min_style cg
    min_modify dmax 0.01 line quadratic

    # reference length for this direction (normal: own axis; shear: see below)
    if "${dir} == 1" then "variable len0 equal ${lx0}"
    if "${dir} == 2" then "variable len0 equal ${ly0}"
    if "${dir} == 3" then "variable len0 equal ${lz0}"
    if "${dir} == 4" then "variable len0 equal ${lz0}"
    if "${dir} == 5" then "variable len0 equal ${lz0}"
    if "${dir} == 6" then "variable len0 equal ${ly0}"
variable len0 equal ${ly0}
variable len0 equal 16.2928493352156
    variable d equal ${eps}*${len0}     # box change in distance units
    variable d equal 0.002*${len0}     
    variable d equal 0.002*16.2928493352156     

    # apply the strain: directions 1-3 stretch an edge, 4-6 add a tilt
    if "${dir} == 1" then "change_box all x  delta 0 ${d} remap units box"
    if "${dir} == 2" then "change_box all y  delta 0 ${d} remap units box"
    if "${dir} == 3" then "change_box all z  delta 0 ${d} remap units box"
    if "${dir} == 4" then "change_box all yz delta ${d}   remap units box"
    if "${dir} == 5" then "change_box all xz delta ${d}   remap units box"
    if "${dir} == 6" then "change_box all xy delta ${d}   remap units box"
change_box all xy delta ${d}   remap units box
change_box all xy delta 0.0325856986704312   remap units box
Changing box ...
  triclinic box = (-0.0014246676 -0.0014246676 -0.0014246676) to (16.291425 16.291425 16.291425) with tilt (0.032585699 0 0)

    # relax the internal coordinates only (box shape stays fixed)
    minimize 0.0 1.0e-12 1000 10000
Neighbor list info ...
  update: every = 1 steps, delay = 0 steps, check = yes
  max neighbors/atom: 2000, page size: 100000
  master list distance cutoff = 5.77118
  ghost atom cutoff = 5.77118
  binsize = 2.88559, bins = 6 6 6
  1 neighbor lists, perpetual/occasional/extra = 1 0 0
  (1) pair sw, perpetual
      attributes: full, newton on
      pair build: full/bin/atomonly
      stencil: full/bin/3d
      bin: standard
Per MPI rank memory allocation (min/avg/max) = 4.214 | 4.214 | 4.214 Mbytes
   Step          Temp          E_pair         E_mol          TotEng         Press     
         0   0             -936.69967      0             -936.69967      1.5285112    
         3   0             -936.70255      0             -936.70255     -0.72391104   
Loop time of 0.00042357 on 1 procs for 3 steps with 216 atoms

98.4% CPU use with 1 MPI tasks x 1 OpenMP threads

Minimization stats:
  Stopping criterion = force tolerance
  Energy initial, next-to-last, final = 
     -936.699674270951  -936.702552307802  -936.702552307802
  Force two-norm initial, final = 0.45863496 4.447363e-13
  Force max component initial, final = 0.031206157 5.4876026e-14
  Final line search alpha, max atom move = 1 5.4876026e-14
  Iterations, force evaluations = 3 6

MPI task timing breakdown:
Section |  min time  |  avg time  |  max time  |%varavg| %total
---------------------------------------------------------------
Pair    | 0.00039725 | 0.00039725 | 0.00039725 |   0.0 | 93.79
Neigh   | 0          | 0          | 0          |   0.0 |  0.00
Comm    | 1.1913e-05 | 1.1913e-05 | 1.1913e-05 |   0.0 |  2.81
Output  | 0          | 0          | 0          |   0.0 |  0.00
Modify  | 0          | 0          | 0          |   0.0 |  0.00
Other   |            | 1.441e-05  |            |       |  3.40

Nlocal:            216 ave         216 max         216 min
Histogram: 1 0 0 0 0 0 0 0 0 0
Nghost:            950 ave         950 max         950 min
Histogram: 1 0 0 0 0 0 0 0 0 0
Neighs:              0 ave           0 max           0 min
Histogram: 1 0 0 0 0 0 0 0 0 0
FullNghs:         7344 ave        7344 max        7344 min
Histogram: 1 0 0 0 0 0 0 0 0 0

Total # of neighbors = 7344
Ave neighs/atom = 34
Neighbor list builds = 0
Dangerous builds = 0

    print "- {dir: ${dir}, eps: ${eps}, pxx: $(pxx:%.6f), pyy: $(pyy:%.6f),         pzz: $(pzz:%.6f), pyz: $(pyz:%.6f), pxz: $(pxz:%.6f),         pxy: $(pxy:%.6f)}" append scan.yaml screen no

    variable len0 delete
    variable d delete
  next eps
  jump SELF epsloop

    # reload the zero-stress reference; clear resets units, so set them again
    clear
OMP_NUM_THREADS environment is not set. Defaulting to 1 thread.
  using 1 OpenMP thread(s) per MPI task
    units metal
    read_data Si_equil.data
Reading data file ...
  triclinic box = (-0.0014246676 -0.0014246676 -0.0014246676) to (16.291425 16.291425 16.291425) with tilt (0 0 0)
  1 by 1 by 1 MPI processor grid
  reading atoms ...
  216 atoms
  reading velocities ...
  216 velocities
  read_data CPU = 0.001 seconds
    pair_style sw
    pair_coeff * * Si.sw Si
Reading sw potential file Si.sw with DATE: 2007-06-11
    min_style cg
    min_modify dmax 0.01 line quadratic

    # reference length for this direction (normal: own axis; shear: see below)
    if "${dir} == 1" then "variable len0 equal ${lx0}"
    if "${dir} == 2" then "variable len0 equal ${ly0}"
    if "${dir} == 3" then "variable len0 equal ${lz0}"
    if "${dir} == 4" then "variable len0 equal ${lz0}"
    if "${dir} == 5" then "variable len0 equal ${lz0}"
    if "${dir} == 6" then "variable len0 equal ${ly0}"
variable len0 equal ${ly0}
variable len0 equal 16.2928493352156
    variable d equal ${eps}*${len0}     # box change in distance units
    variable d equal 0.004*${len0}     
    variable d equal 0.004*16.2928493352156     

    # apply the strain: directions 1-3 stretch an edge, 4-6 add a tilt
    if "${dir} == 1" then "change_box all x  delta 0 ${d} remap units box"
    if "${dir} == 2" then "change_box all y  delta 0 ${d} remap units box"
    if "${dir} == 3" then "change_box all z  delta 0 ${d} remap units box"
    if "${dir} == 4" then "change_box all yz delta ${d}   remap units box"
    if "${dir} == 5" then "change_box all xz delta ${d}   remap units box"
    if "${dir} == 6" then "change_box all xy delta ${d}   remap units box"
change_box all xy delta ${d}   remap units box
change_box all xy delta 0.0651713973408624   remap units box
Changing box ...
  triclinic box = (-0.0014246676 -0.0014246676 -0.0014246676) to (16.291425 16.291425 16.291425) with tilt (0.065171397 0 0)

    # relax the internal coordinates only (box shape stays fixed)
    minimize 0.0 1.0e-12 1000 10000
Neighbor list info ...
  update: every = 1 steps, delay = 0 steps, check = yes
  max neighbors/atom: 2000, page size: 100000
  master list distance cutoff = 5.77118
  ghost atom cutoff = 5.77118
  binsize = 2.88559, bins = 6 6 6
  1 neighbor lists, perpetual/occasional/extra = 1 0 0
  (1) pair sw, perpetual
      attributes: full, newton on
      pair build: full/bin/atomonly
      stencil: full/bin/3d
      bin: standard
Per MPI rank memory allocation (min/avg/max) = 4.214 | 4.214 | 4.214 Mbytes
   Step          Temp          E_pair         E_mol          TotEng         Press     
         0   0             -936.6819       0             -936.6819       6.1140256    
         3   0             -936.69341      0             -936.69341     -2.8956907    
Loop time of 0.000413481 on 1 procs for 3 steps with 216 atoms

91.7% CPU use with 1 MPI tasks x 1 OpenMP threads

Minimization stats:
  Stopping criterion = force tolerance
  Energy initial, next-to-last, final = 
     -936.681897212783  -936.693409373327  -936.693409373327
  Force two-norm initial, final = 0.91727145 4.4934111e-13
  Force max component initial, final = 0.062412417 6.471863e-14
  Final line search alpha, max atom move = 1 6.471863e-14
  Iterations, force evaluations = 3 6

MPI task timing breakdown:
Section |  min time  |  avg time  |  max time  |%varavg| %total
---------------------------------------------------------------
Pair    | 0.00038732 | 0.00038732 | 0.00038732 |   0.0 | 93.67
Neigh   | 0          | 0          | 0          |   0.0 |  0.00
Comm    | 1.2423e-05 | 1.2423e-05 | 1.2423e-05 |   0.0 |  3.00
Output  | 0          | 0          | 0          |   0.0 |  0.00
Modify  | 0          | 0          | 0          |   0.0 |  0.00
Other   |            | 1.374e-05  |            |       |  3.32

Nlocal:            216 ave         216 max         216 min
Histogram: 1 0 0 0 0 0 0 0 0 0
Nghost:            950 ave         950 max         950 min
Histogram: 1 0 0 0 0 0 0 0 0 0
Neighs:              0 ave           0 max           0 min
Histogram: 1 0 0 0 0 0 0 0 0 0
FullNghs:         7344 ave        7344 max        7344 min
Histogram: 1 0 0 0 0 0 0 0 0 0

Total # of neighbors = 7344
Ave neighs/atom = 34
Neighbor list builds = 0
Dangerous builds = 0

    print "- {dir: ${dir}, eps: ${eps}, pxx: $(pxx:%.6f), pyy: $(pyy:%.6f),         pzz: $(pzz:%.6f), pyz: $(pyz:%.6f), pxz: $(pxz:%.6f),         pxy: $(pxy:%.6f)}" append scan.yaml screen no

    variable len0 delete
    variable d delete
  next eps
  jump SELF epsloop

    # reload the zero-stress reference; clear resets units, so set them again
    clear
OMP_NUM_THREADS environment is not set. Defaulting to 1 thread.
  using 1 OpenMP thread(s) per MPI task
    units metal
    read_data Si_equil.data
Reading data file ...
  triclinic box = (-0.0014246676 -0.0014246676 -0.0014246676) to (16.291425 16.291425 16.291425) with tilt (0 0 0)
  1 by 1 by 1 MPI processor grid
  reading atoms ...
  216 atoms
  reading velocities ...
  216 velocities
  read_data CPU = 0.001 seconds
    pair_style sw
    pair_coeff * * Si.sw Si
Reading sw potential file Si.sw with DATE: 2007-06-11
    min_style cg
    min_modify dmax 0.01 line quadratic

    # reference length for this direction (normal: own axis; shear: see below)
    if "${dir} == 1" then "variable len0 equal ${lx0}"
    if "${dir} == 2" then "variable len0 equal ${ly0}"
    if "${dir} == 3" then "variable len0 equal ${lz0}"
    if "${dir} == 4" then "variable len0 equal ${lz0}"
    if "${dir} == 5" then "variable len0 equal ${lz0}"
    if "${dir} == 6" then "variable len0 equal ${ly0}"
variable len0 equal ${ly0}
variable len0 equal 16.2928493352156
    variable d equal ${eps}*${len0}     # box change in distance units
    variable d equal 0.006*${len0}     
    variable d equal 0.006*16.2928493352156     

    # apply the strain: directions 1-3 stretch an edge, 4-6 add a tilt
    if "${dir} == 1" then "change_box all x  delta 0 ${d} remap units box"
    if "${dir} == 2" then "change_box all y  delta 0 ${d} remap units box"
    if "${dir} == 3" then "change_box all z  delta 0 ${d} remap units box"
    if "${dir} == 4" then "change_box all yz delta ${d}   remap units box"
    if "${dir} == 5" then "change_box all xz delta ${d}   remap units box"
    if "${dir} == 6" then "change_box all xy delta ${d}   remap units box"
change_box all xy delta ${d}   remap units box
change_box all xy delta 0.0977570960112936   remap units box
Changing box ...
  triclinic box = (-0.0014246676 -0.0014246676 -0.0014246676) to (16.291425 16.291425 16.291425) with tilt (0.097757096 0 0)

    # relax the internal coordinates only (box shape stays fixed)
    minimize 0.0 1.0e-12 1000 10000
Neighbor list info ...
  update: every = 1 steps, delay = 0 steps, check = yes
  max neighbors/atom: 2000, page size: 100000
  master list distance cutoff = 5.77118
  ghost atom cutoff = 5.77118
  binsize = 2.88559, bins = 6 6 6
  1 neighbor lists, perpetual/occasional/extra = 1 0 0
  (1) pair sw, perpetual
      attributes: full, newton on
      pair build: full/bin/atomonly
      stencil: full/bin/3d
      bin: standard
Per MPI rank memory allocation (min/avg/max) = 4.214 | 4.214 | 4.214 Mbytes
   Step          Temp          E_pair         E_mol          TotEng         Press     
         0   0             -936.65227      0             -936.65227      13.756486    
         3   0             -936.67817      0             -936.67817     -6.5154789    
Loop time of 0.000420824 on 1 procs for 3 steps with 216 atoms

98.6% CPU use with 1 MPI tasks x 1 OpenMP threads

Minimization stats:
  Stopping criterion = force tolerance
  Energy initial, next-to-last, final = 
     -936.652269033856  -936.678171444201  -936.678171444211
  Force two-norm initial, final = 1.375911 4.452064e-13
  Force max component initial, final = 0.093618884 5.6885052e-14
  Final line search alpha, max atom move = 1 5.6885052e-14
  Iterations, force evaluations = 3 6

MPI task timing breakdown:
Section |  min time  |  avg time  |  max time  |%varavg| %total
---------------------------------------------------------------
Pair    | 0.00039433 | 0.00039433 | 0.00039433 |   0.0 | 93.70
Neigh   | 0          | 0          | 0          |   0.0 |  0.00
Comm    | 1.2584e-05 | 1.2584e-05 | 1.2584e-05 |   0.0 |  2.99
Output  | 0          | 0          | 0          |   0.0 |  0.00
Modify  | 0          | 0          | 0          |   0.0 |  0.00
Other   |            | 1.391e-05  |            |       |  3.30

Nlocal:            216 ave         216 max         216 min
Histogram: 1 0 0 0 0 0 0 0 0 0
Nghost:            950 ave         950 max         950 min
Histogram: 1 0 0 0 0 0 0 0 0 0
Neighs:              0 ave           0 max           0 min
Histogram: 1 0 0 0 0 0 0 0 0 0
FullNghs:         7344 ave        7344 max        7344 min
Histogram: 1 0 0 0 0 0 0 0 0 0

Total # of neighbors = 7344
Ave neighs/atom = 34
Neighbor list builds = 0
Dangerous builds = 0

    print "- {dir: ${dir}, eps: ${eps}, pxx: $(pxx:%.6f), pyy: $(pyy:%.6f),         pzz: $(pzz:%.6f), pyz: $(pyz:%.6f), pxz: $(pxz:%.6f),         pxy: $(pxy:%.6f)}" append scan.yaml screen no

    variable len0 delete
    variable d delete
  next eps
  jump SELF epsloop

    # reload the zero-stress reference; clear resets units, so set them again
    clear
OMP_NUM_THREADS environment is not set. Defaulting to 1 thread.
  using 1 OpenMP thread(s) per MPI task
    units metal
    read_data Si_equil.data
Reading data file ...
  triclinic box = (-0.0014246676 -0.0014246676 -0.0014246676) to (16.291425 16.291425 16.291425) with tilt (0 0 0)
  1 by 1 by 1 MPI processor grid
  reading atoms ...
  216 atoms
  reading velocities ...
  216 velocities
  read_data CPU = 0.000 seconds
    pair_style sw
    pair_coeff * * Si.sw Si
Reading sw potential file Si.sw with DATE: 2007-06-11
    min_style cg
    min_modify dmax 0.01 line quadratic

    # reference length for this direction (normal: own axis; shear: see below)
    if "${dir} == 1" then "variable len0 equal ${lx0}"
    if "${dir} == 2" then "variable len0 equal ${ly0}"
    if "${dir} == 3" then "variable len0 equal ${lz0}"
    if "${dir} == 4" then "variable len0 equal ${lz0}"
    if "${dir} == 5" then "variable len0 equal ${lz0}"
    if "${dir} == 6" then "variable len0 equal ${ly0}"
variable len0 equal ${ly0}
variable len0 equal 16.2928493352156
    variable d equal ${eps}*${len0}     # box change in distance units
    variable d equal 0.008*${len0}     
    variable d equal 0.008*16.2928493352156     

    # apply the strain: directions 1-3 stretch an edge, 4-6 add a tilt
    if "${dir} == 1" then "change_box all x  delta 0 ${d} remap units box"
    if "${dir} == 2" then "change_box all y  delta 0 ${d} remap units box"
    if "${dir} == 3" then "change_box all z  delta 0 ${d} remap units box"
    if "${dir} == 4" then "change_box all yz delta ${d}   remap units box"
    if "${dir} == 5" then "change_box all xz delta ${d}   remap units box"
    if "${dir} == 6" then "change_box all xy delta ${d}   remap units box"
change_box all xy delta ${d}   remap units box
change_box all xy delta 0.130342794681725   remap units box
Changing box ...
  triclinic box = (-0.0014246676 -0.0014246676 -0.0014246676) to (16.291425 16.291425 16.291425) with tilt (0.13034279 0 0)

    # relax the internal coordinates only (box shape stays fixed)
    minimize 0.0 1.0e-12 1000 10000
Neighbor list info ...
  update: every = 1 steps, delay = 0 steps, check = yes
  max neighbors/atom: 2000, page size: 100000
  master list distance cutoff = 5.77118
  ghost atom cutoff = 5.77118
  binsize = 2.88559, bins = 6 6 6
  1 neighbor lists, perpetual/occasional/extra = 1 0 0
  (1) pair sw, perpetual
      attributes: full, newton on
      pair build: full/bin/atomonly
      stencil: full/bin/3d
      bin: standard
Per MPI rank memory allocation (min/avg/max) = 4.214 | 4.214 | 4.214 Mbytes
   Step          Temp          E_pair         E_mol          TotEng         Press     
         0   0             -936.61079      0             -936.61079      24.455796    
         3   0             -936.65684      0             -936.65684     -11.583508    
Loop time of 0.00041799 on 1 procs for 3 steps with 216 atoms

89.5% CPU use with 1 MPI tasks x 1 OpenMP threads

Minimization stats:
  Stopping criterion = force tolerance
  Energy initial, next-to-last, final = 
     -936.610790111196  -936.656838962838   -936.65683896283
  Force two-norm initial, final = 1.8345551 4.4950496e-13
  Force max component initial, final = 0.12482566 7.1127132e-14
  Final line search alpha, max atom move = 1 7.1127132e-14
  Iterations, force evaluations = 3 6

MPI task timing breakdown:
Section |  min time  |  avg time  |  max time  |%varavg| %total
---------------------------------------------------------------
Pair    | 0.00039247 | 0.00039247 | 0.00039247 |   0.0 | 93.89
Neigh   | 0          | 0          | 0          |   0.0 |  0.00
Comm    | 1.1893e-05 | 1.1893e-05 | 1.1893e-05 |   0.0 |  2.85
Output  | 0          | 0          | 0          |   0.0 |  0.00
Modify  | 0          | 0          | 0          |   0.0 |  0.00
Other   |            | 1.363e-05  |            |       |  3.26

Nlocal:            216 ave         216 max         216 min
Histogram: 1 0 0 0 0 0 0 0 0 0
Nghost:            950 ave         950 max         950 min
Histogram: 1 0 0 0 0 0 0 0 0 0
Neighs:              0 ave           0 max           0 min
Histogram: 1 0 0 0 0 0 0 0 0 0
FullNghs:         7344 ave        7344 max        7344 min
Histogram: 1 0 0 0 0 0 0 0 0 0

Total # of neighbors = 7344
Ave neighs/atom = 34
Neighbor list builds = 0
Dangerous builds = 0

    print "- {dir: ${dir}, eps: ${eps}, pxx: $(pxx:%.6f), pyy: $(pyy:%.6f),         pzz: $(pzz:%.6f), pyz: $(pyz:%.6f), pxz: $(pxz:%.6f),         pxy: $(pxy:%.6f)}" append scan.yaml screen no

    variable len0 delete
    variable d delete
  next eps
  jump SELF epsloop

next dir
jump SELF dirloop

print "Elastic strain scan complete; results written to scan.yaml"
Elastic strain scan complete; results written to scan.yaml
Total wall time: 0:00:00
