LAMMPS (30 Mar 2026 - Development - patch_30Mar2026-316-gee93998fe5-modified)
  using 1 OpenMP thread(s) per MPI task
# LAMMPS Input File  (figure: seeded melt, cut-away)
# Licensed under CC BY 4.0
# Render the seeded melt (nucleate.lmp) with the top-front quarter of the cell
# cut away so the crystalline seed at the center is exposed.  The bulk (molten)
# atoms are gray; the seed atoms are a separate type drawn steelblue, so they
# stand out where they protrude into the cut-away void.

units metal
atom_style atomic
boundary p p p
lattice fcc 4.05
Lattice spacing in x,y,z = 4.05 4.05 4.05
region box block 0 8 0 8 0 8
create_box 2 box
Created orthogonal box = (0 0 0) to (32.4 32.4 32.4)
  4 by 4 by 4 MPI processor grid
create_atoms 1 box
Created 2048 atoms
  using lattice units in orthogonal box = (0 0 0) to (32.4 32.4 32.4)
  create_atoms CPU = 0.042 seconds
mass 1 26.98
mass 2 26.98
pair_style eam/fs
pair_coeff * * ../Al_mm.eam.fs Al Al
Reading eam/fs potential file ../Al_mm.eam.fs with DATE: 2007-06-11
velocity all create 300.0 12345 mom yes rot yes
timestep 0.002
thermo 5000

# central spherical seed -> atom type 2 (so it can be colored separately)
region sphere sphere 16.2 16.2 16.2 9.0 units box
group  seed region sphere
177 atoms in group seed
set group seed type 2
Setting atom values ...
  177 settings made for type

# restrain the seed to its co-dilating lattice sites (as in nucleate.lmp)
fix seed0 seed store/state 0 xs ys zs
variable txx atom xlo+f_seed0[1]*lx
variable tyy atom ylo+f_seed0[2]*ly
variable tzz atom zlo+f_seed0[3]*lz
variable dxs atom x-v_txx
variable dys atom y-v_tyy
variable dzs atom z-v_tzz
variable drs atom sqrt(v_dxs*v_dxs+v_dys*v_dys+v_dzs*v_dzs)
variable kgrow equal 10000
variable gate  equal "(step/v_kgrow)*(step<=v_kgrow)+(step>v_kgrow)"
variable k0   equal 3.0
variable k1   equal 9.0
variable d0   equal 0.6
variable keff atom v_gate*(v_k0+v_k1/(1.0+(v_drs/v_d0)*(v_drs/v_d0)))
variable fxx atom -v_keff*v_dxs
variable fyy atom -v_keff*v_dys
variable fzz atom -v_keff*v_dzs
fix pull seed addforce v_fxx v_fyy v_fzz

# equilibrate, then heat well above melting so the bulk is liquid
fix relax all npt temp 300.0 300.0 0.2 iso 0.0 0.0 2.0
run 10000
Neighbor list info ...
  update: every = 1 steps, delay = 0 steps, check = yes
  max neighbors/atom: 2000, page size: 100000
  master list distance cutoff = 8.5
  ghost atom cutoff = 8.5
  binsize = 4.25, bins = 8 8 8
  1 neighbor lists, perpetual/occasional/extra = 1 0 0
  (1) pair eam/fs, perpetual
      attributes: half, newton on
      pair build: half/bin/atomonly/newton
      stencil: half/bin/3d
      bin: standard
Per MPI rank memory allocation (min/avg/max) = 4.121 | 4.121 | 4.122 Mbytes
   Step          Temp          E_pair         E_mol          TotEng         Press          Volume    
         0   300           -6984.9253      0             -6905.5466     -191.66037      34012.224    
      5000   297.81552     -6911.8275      0             -6833.0268     -873.9325       34595.504    
     10000   292.42856     -6913.2618      0             -6835.8865      380.93681      34536.403    
Loop time of 2.94101 on 64 procs for 10000 steps with 2048 atoms

Performance: 587.552 ns/day, 0.041 hours/ns, 3400.187 timesteps/s, 6.964 Matom-step/s
96.7% CPU use with 64 MPI tasks x 1 OpenMP threads

MPI task timing breakdown:
Section |  min time  |  avg time  |  max time  |%varavg| %total
---------------------------------------------------------------
Pair    | 0.96052    | 0.98758    | 1.0359     |   1.6 | 33.58
Neigh   | 0          | 0          | 0          |   0.0 |  0.00
Comm    | 0.57476    | 0.63203    | 0.66671    |   2.3 | 21.49
Output  | 4.8294e-05 | 4.9013e-05 | 6.3689e-05 |   0.0 |  0.00
Modify  | 1.2702     | 1.2839     | 1.2937     |   0.5 | 43.65
Other   |            | 0.03749    |            |       |  1.27

Nlocal:             32 ave          32 max          32 min
Histogram: 64 0 0 0 0 0 0 0 0 0
Nghost:           1067 ave        1067 max        1067 min
Histogram: 64 0 0 0 0 0 0 0 0 0
Neighs:           2240 ave        2476 max        2107 min
Histogram: 13 11 10 10 3 1 5 5 2 4

Total # of neighbors = 143360
Ave neighs/atom = 70
Neighbor list builds = 0
Dangerous builds = 0
unfix relax
fix hot all npt temp 300.0 1500.0 0.2 iso 0.0 0.0 2.0
run 60000
Per MPI rank memory allocation (min/avg/max) = 4.121 | 4.121 | 4.122 Mbytes
   Step          Temp          E_pair         E_mol          TotEng         Press          Volume    
     10000   292.42856     -6913.2618      0             -6835.8865      380.93681      34536.403    
     15000   393.39165     -6883.0444      0             -6778.9547      216.32726      34769.676    
     20000   509.69537     -6856.9334      0             -6722.0703      390.8052       34976.425    
     25000   599.69795     -6821.6611      0             -6662.9837     -1886.259       35336.605    
     30000   692.12836     -6787.0855      0             -6603.9515     -409.58409      35514.674    
     35000   786.86949     -6751.5459      0             -6543.3437     -1657.4931      35820.734    
     40000   891.87143     -6728.6464      0             -6492.6612     -151.80563      35952.798    
     45000   985.18978     -6677.1097      0             -6416.4329     -2851.0937      36468.978    
     50000   1083.526      -6617.1189      0             -6330.4228      400.08685      36784.267    
     55000   1160.2958     -6465.4639      0             -6158.4548     -2870.4219      38340.361    
     60000   1256.2692     -6351.7069      0             -6019.3037      102.84068      39304.442    
     65000   1368.4935     -6313.6955      0             -5951.5983     -454.11524      39786.093    
     70000   1550.9902     -6300.4663      0             -5890.0813      959.61067      39929.227    
Loop time of 15.7707 on 64 procs for 60000 steps with 2048 atoms

Performance: 657.421 ns/day, 0.037 hours/ns, 3804.520 timesteps/s, 7.792 Matom-step/s
96.8% CPU use with 64 MPI tasks x 1 OpenMP threads

MPI task timing breakdown:
Section |  min time  |  avg time  |  max time  |%varavg| %total
---------------------------------------------------------------
Pair    | 5.1598     | 5.258      | 5.5437     |   3.4 | 33.34
Neigh   | 0.10509    | 0.11308    | 0.12216    |   1.2 |  0.72
Comm    | 3.365      | 3.6566     | 3.7941     |   4.6 | 23.19
Output  | 0.0002826  | 0.00028686 | 0.00036076 |   0.0 |  0.00
Modify  | 6.5102     | 6.556      | 6.6014     |   0.8 | 41.57
Other   |            | 0.1868     |            |       |  1.18

Nlocal:             32 ave          37 max          25 min
Histogram: 1 0 3 2 13 20 7 6 8 4
Nghost:        818.484 ave         833 max         803 min
Histogram: 2 1 7 9 10 13 6 7 3 6
Neighs:        2105.23 ave        2459 max        1623 min
Histogram: 1 0 6 7 9 12 8 11 6 4

Total # of neighbors = 134735
Ave neighs/atom = 65.788574
Neighbor list builds = 2051
Dangerous builds = 0
unfix hot
fix eqm all npt temp 1500.0 1500.0 0.2 iso 0.0 0.0 2.0
run 20000
Per MPI rank memory allocation (min/avg/max) = 4.223 | 4.223 | 4.223 Mbytes
   Step          Temp          E_pair         E_mol          TotEng         Press          Volume    
     70000   1550.9902     -6300.4663      0             -5890.0813      959.61067      39929.227    
     75000   1486.1563     -6275.7164      0             -5882.4861     -1683.3137      40299.2      
     80000   1477.0228     -6293.0066      0             -5902.193       250.37594      39952.877    
     85000   1539.4937     -6284.1291      0             -5876.786       1166.1214      40102.074    
     90000   1502.6141     -6294.1304      0             -5896.5455      127.55426      40063.999    
Loop time of 4.68 on 64 procs for 20000 steps with 2048 atoms

Performance: 738.461 ns/day, 0.033 hours/ns, 4273.500 timesteps/s, 8.752 Matom-step/s
97.0% CPU use with 64 MPI tasks x 1 OpenMP threads

MPI task timing breakdown:
Section |  min time  |  avg time  |  max time  |%varavg| %total
---------------------------------------------------------------
Pair    | 1.3855     | 1.4235     | 1.558      |   2.8 | 30.42
Neigh   | 0.05093    | 0.052714   | 0.056616   |   0.5 |  1.13
Comm    | 0.79888    | 0.93517    | 0.98574    |   3.9 | 19.98
Output  | 8.4661e-05 | 8.6305e-05 | 0.00010813 |   0.0 |  0.00
Modify  | 2.1904     | 2.2061     | 2.2209     |   0.5 | 47.14
Other   |            | 0.06242    |            |       |  1.33

Nlocal:             32 ave          39 max          25 min
Histogram: 2 1 9 7 11 15 6 10 2 1
Nghost:        817.188 ave         830 max         802 min
Histogram: 1 2 6 14 9 6 6 7 8 5
Neighs:        2098.25 ave        2672 max        1658 min
Histogram: 2 4 10 18 7 12 4 5 1 1

Total # of neighbors = 134288
Ave neighs/atom = 65.570312
Neighbor list builds = 1085
Dangerous builds = 0

# show every atom EXCEPT bulk atoms in the top-front quarter (z>zmid & y<ymid);
# the whole seed is always shown via gmask(seed)
variable ymid equal ylo+(yhi-ylo)/2.0
variable zmid equal zlo+(zhi-zlo)/2.0
# the atom-style variable selects the shown atoms; group ... variable turns it
# into a (static) group that write_dump can render in a single file
variable show atom "(z<v_zmid)||(y>v_ymid)||gmask(seed)"
group shown variable show
1580 atoms in group shown

write_dump shown image seed-cutaway.png type type adiam 3.0     view 80 -10 zoom 1.45 size 800 800 shiny 0.2 fsaa yes ssao yes 9921 0.4     box yes 0.02 modify backcolor white boxcolor midnightblue     acolor 1 gray acolor 2 steelblue lights 0.2 0.9 0.5 0.9
Total wall time: 0:00:24
