LAMMPS (30 Mar 2026 - Development - patch_30Mar2026-1178-g5f8b8984a-modified)
  using 2 OpenMP thread(s) per MPI task
# LAMMPS Input File
# Licensed under CC BY 4.0
# A Set of Materials-Science Tutorials for the LAMMPS Simulation Package
# Tutorial 17: chemical short-range order in a high-entropy alloy
#
# Build an equimolar fcc CoCrFeNi solid solution with the chemical species
# assigned at random, then drive it toward chemical equilibrium with a hybrid
# molecular dynamics / Monte Carlo scheme: molecular dynamics moves the atoms
# while fix atom/swap proposes exchanges of the chemical identities of pairs
# of atoms, accepted with the Metropolis criterion.  The alloy develops
# chemical short-range order, which is quantified by the Warren-Cowley
# parameters (see plot.py).  Uses the EAM potential of Farkas and Caro,
# J. Mater. Res. 33, 3218 (2018), designed for fcc high-entropy alloys.

units metal
atom_style atomic
boundary p p p

variable T equal 700.0

# 1) build a random equimolar CoCrFeNi crystal (fcc, 8x8x8 = 2048 atoms)
lattice fcc 3.56
Lattice spacing in x,y,z = 3.56 3.56 3.56
region box block 0 8 0 8 0 8
create_box 4 box
Created orthogonal box = (0 0 0) to (28.48 28.48 28.48)
  1 by 1 by 1 MPI processor grid
create_atoms 1 box
Created 2048 atoms
  using lattice units in orthogonal box = (0 0 0) to (28.48 28.48 28.48)
  create_atoms CPU = 0.000 seconds
# randomly assign exactly one quarter of the sites to each element
set group all type/subset 2 512 12345
Setting atom values ...
  512 settings made for type/subset
set type 1   type/subset 3 512 23456
Setting atom values ...
  512 settings made for type/subset
set type 1   type/subset 4 512 34567
Setting atom values ...
  512 settings made for type/subset
mass 1 58.933   # Co
mass 2 51.996   # Cr
mass 3 55.845   # Fe
mass 4 58.693   # Ni
pair_style eam/alloy
pair_coeff * * FeNiCrCoCu-heafixed.setfl Co Cr Fe Ni

variable peat equal pe/count(all)

# 2) thermalize the atomic positions at temperature T (no swaps yet)
velocity all create ${T} 9988 mom yes rot yes dist gaussian
velocity all create 700 9988 mom yes rot yes dist gaussian
fix md all npt temp ${T} ${T} 0.1 iso 0.0 0.0 1.0
fix md all npt temp 700 ${T} 0.1 iso 0.0 0.0 1.0
fix md all npt temp 700 700 0.1 iso 0.0 0.0 1.0
thermo 500
thermo_style custom step temp pe press
run 2000
Neighbor list info ...
  update: every = 1 steps, delay = 0 steps, check = yes
  max neighbors/atom: 2000, page size: 100000
  master list distance cutoff = 7.80375
  ghost atom cutoff = 7.80375
  binsize = 3.901875, bins = 8 8 8
  1 neighbor lists, perpetual/occasional/extra = 1 0 0
  (1) pair eam/alloy, perpetual
      attributes: half, newton on
      pair build: half/bin/atomonly/newton
      stencil: half/bin/3d
      bin: standard
Per MPI rank memory allocation (min/avg/max) = 4.843 | 4.843 | 4.843 Mbytes
   Step          Temp          PotEng         Press     
         0   700           -8927.6623     -27727.266    
       500   637.44424     -8776.2204      4738.9306    
      1000   695.56588     -8754.955       2988.0307    
      1500   703.63045     -8743.0651     -1476.0253    
      2000   714.91574     -8751.0846     -3686.6098    
Loop time of 5.98866 on 2 procs for 2000 steps with 2048 atoms

Performance: 28.855 ns/day, 0.832 hours/ns, 333.965 timesteps/s, 683.959 katom-step/s
199.3% CPU use with 1 MPI tasks x 2 OpenMP threads

MPI task timing breakdown:
Section |  min time  |  avg time  |  max time  |%varavg| %total
---------------------------------------------------------------
Pair    | 5.8756     | 5.8756     | 5.8756     |   0.0 | 98.11
Neigh   | 0          | 0          | 0          |   0.0 |  0.00
Comm    | 0.025922   | 0.025922   | 0.025922   |   0.0 |  0.43
Output  | 9.8999e-05 | 9.8999e-05 | 9.8999e-05 |   0.0 |  0.00
Modify  | 0.077932   | 0.077932   | 0.077932   |   0.0 |  1.30
Other   |            | 0.009145   |            |       |  0.15

Nlocal:           2048 ave        2048 max        2048 min
Histogram: 1 0 0 0 0 0 0 0 0 0
Nghost:           5765 ave        5765 max        5765 min
Histogram: 1 0 0 0 0 0 0 0 0 0
Neighs:         180224 ave      180224 max      180224 min
Histogram: 1 0 0 0 0 0 0 0 0 0

Total # of neighbors = 180224
Ave neighs/atom = 88
Neighbor list builds = 0
Dangerous builds = 0
write_dump all custom random.dump id type x y z modify sort id

# 3) hybrid MD/MC: every 40 MD steps attempt 80 identity swaps for each
#    element pair, accepted with the Metropolis criterion at temperature T
fix s12 all atom/swap 40 80 701 ${T} types 1 2
fix s12 all atom/swap 40 80 701 700 types 1 2
fix s13 all atom/swap 40 80 702 ${T} types 1 3
fix s13 all atom/swap 40 80 702 700 types 1 3
fix s14 all atom/swap 40 80 703 ${T} types 1 4
fix s14 all atom/swap 40 80 703 700 types 1 4
fix s23 all atom/swap 40 80 704 ${T} types 2 3
fix s23 all atom/swap 40 80 704 700 types 2 3
fix s24 all atom/swap 40 80 705 ${T} types 2 4
fix s24 all atom/swap 40 80 705 700 types 2 4
fix s34 all atom/swap 40 80 706 ${T} types 3 4
fix s34 all atom/swap 40 80 706 700 types 3 4
# record the (smoothed) energy and dump snapshots for the order analysis
fix peout all ave/time 100 1 100 v_peat file energy.dat
dump traj all custom 500 anneal.dump id type x y z
dump_modify traj sort id
run 20000
Per MPI rank memory allocation (min/avg/max) = 4.843 | 4.843 | 4.843 Mbytes
   Step          Temp          PotEng         Press     
      2000   714.91574     -8751.0846     -3686.6098    
      2500   687.23055     -8755.066      -877.94362    
      3000   691.18183     -8754.0029      1571.2783    
      3500   700.37097     -8749.6457      786.36026    
      4000   708.42051     -8750.7953      2521.5395    
      4500   696.4787      -8753.727      -1286.7098    
      5000   711.40737     -8760.0413     -3231.4567    
      5500   701.06322     -8752.2373     -313.91419    
      6000   709.80551     -8749.4178      2548.58      
      6500   731.23342     -8753.931       3255.4582    
      7000   704.70586     -8753.0105      2552.1509    
      7500   677.6297      -8749.248      -3164.4146    
      8000   679.10647     -8753.2818     -449.65934    
      8500   698.23232     -8753.0437      1097.3493    
      9000   710.97075     -8752.4797     -1455.2394    
      9500   707.88941     -8748.8266     -233.45736    
     10000   714.38661     -8748.6339     -677.02888    
     10500   706.81649     -8747.1043     -1734.2008    
     11000   703.23747     -8752.5796      2522.7372    
     11500   699.24151     -8749.6652      1564.5463    
     12000   736.49817     -8755.2666      1195.7208    
     12500   728.2255      -8751.1886     -3079.2584    
     13000   711.67681     -8753.0977     -4861.8754    
     13500   706.45307     -8755.4213     -987.90391    
     14000   700.20525     -8754.8903     -3437.6606    
     14500   693.35315     -8749.8573     -2098.2054    
     15000   686.48466     -8747.2663      979.07638    
     15500   724.66989     -8754.0238      8867.6787    
     16000   694.26585     -8751.7973      4810.0783    
     16500   713.31101     -8753.791      -4305.1636    
     17000   715.139       -8750.3447      458.59227    
     17500   701.1921      -8760.472      -1468.8432    
     18000   697.85321     -8758.4888     -1363.5474    
     18500   704.81186     -8752.506      -5043.4027    
     19000   716.97561     -8750.4822     -1497.7996    
     19500   716.7423      -8755.1354     -1214.4683    
     20000   698.37688     -8752.746       784.77098    
     20500   695.37376     -8754.2862      3817.8429    
     21000   710.56521     -8750.8832      2164.1491    
     21500   704.97407     -8755.4956      1604.3672    
     22000   701.76675     -8758.359      -1503.9549    
Loop time of 889.424 on 2 procs for 20000 steps with 2048 atoms

Performance: 1.943 ns/day, 12.353 hours/ns, 22.486 timesteps/s, 46.052 katom-step/s
108.5% CPU use with 1 MPI tasks x 2 OpenMP threads

MPI task timing breakdown:
Section |  min time  |  avg time  |  max time  |%varavg| %total
---------------------------------------------------------------
Pair    | 62.908     | 62.908     | 62.908     |   0.0 |  7.07
Neigh   | 1.5125     | 1.5125     | 1.5125     |   0.0 |  0.17
Comm    | 0.28383    | 0.28383    | 0.28383    |   0.0 |  0.03
Output  | 0.05034    | 0.05034    | 0.05034    |   0.0 |  0.01
Modify  | 824.56     | 824.56     | 824.56     |   0.0 | 92.71
Other   |            | 0.1122     |            |       |  0.01

Nlocal:           2048 ave        2048 max        2048 min
Histogram: 1 0 0 0 0 0 0 0 0 0
Nghost:           5647 ave        5647 max        5647 min
Histogram: 1 0 0 0 0 0 0 0 0 0
Neighs:         180115 ave      180115 max      180115 min
Histogram: 1 0 0 0 0 0 0 0 0 0

Total # of neighbors = 180115
Ave neighs/atom = 87.946777
Neighbor list builds = 3500
Dangerous builds = 0
write_dump all custom ordered.dump id type x y z modify sort id

# 4) report the fraction of accepted swaps for each pair
print "acceptance Co-Cr: $(f_s12[2]/f_s12[1]:%.3f)"
acceptance Co-Cr: 0.720
print "acceptance Co-Fe: $(f_s13[2]/f_s13[1]:%.3f)"
acceptance Co-Fe: 0.860
print "acceptance Co-Ni: $(f_s14[2]/f_s14[1]:%.3f)"
acceptance Co-Ni: 0.829
print "acceptance Cr-Fe: $(f_s23[2]/f_s23[1]:%.3f)"
acceptance Cr-Fe: 0.636
print "acceptance Cr-Ni: $(f_s24[2]/f_s24[1]:%.3f)"
acceptance Cr-Ni: 0.836
print "acceptance Fe-Ni: $(f_s34[2]/f_s34[1]:%.3f)"
acceptance Fe-Ni: 0.747
Total wall time: 0:14:55
