LAMMPS (30 Mar 2026 - Development - patch_30Mar2026-1121-g91d4111a9)
  using 8 OpenMP thread(s) per MPI task
package omp 0
using multi-threaded neighbor list subroutines
# LAMMPS Input File
# Licensed under CC BY 4.0
# A Set of Materials-Science Tutorials for the LAMMPS Simulation Package
# Tutorial 7: pull a bcc-iron <110> Sigma3(111) bicrystal apart perpendicular
# to the grain boundary until it fractures, recording the stress-strain
# response and per-atom stress for visualization.
#
# This is a quasi-static (athermal) test: two rigid "grips" at the top and
# bottom are displaced apart in small increments, and the structure is
# energy-minimized after each increment.  Run makegb.lmp first to create
# Fe_gb.data (the relaxed grain boundary).

variable delta  index 0.06     # grip displacement per step and side (Angstrom)
variable nsteps index 80       # number of loading increments
variable grip   index 6.0      # thickness of each rigid grip (Angstrom)

# 1) Initialization -- non-periodic along y so the bicrystal has free surfaces
#    at the top and bottom and a single grain boundary at y = 0
units metal
dimension 3
boundary p s p
atom_style atomic

read_data Fe_gb.data
Reading data file ...
  orthogonal box = (-0.020345129 -39.56453 -0.0058919572) to (27.996693 39.56453 8.0819678)
  1 by 1 by 1 MPI processor grid
  reading atoms ...
WARNING: Non-zero imageflag(s) in y direction for non-periodic boundary reset to zero (src/read_data.cpp:1570)
  1534 atoms
  reading velocities ...
  1534 velocities
  read_data CPU = 0.004 seconds

# 2) Interatomic potential (Mendelev 2003 bcc iron)
pair_style eam/fs
pair_coeff * * Fe_mm.eam.fs Fe Fe
Reading eam/fs potential file Fe_mm.eam.fs with DATE: 2007-06-11

# 3) Per-atom virial stress; sigma_yy (component 2) is the pulling direction.
#    stress/atom has units of pressure*volume, so divide by the atomic volume
#    (a0^3/2 for bcc) and by 1e4 to express it in GPa for coloring.
compute satom all stress/atom NULL
variable a0 equal 2.855324
variable vatom equal ${a0}*${a0}*${a0}/2.0
variable vatom equal 2.855324*${a0}*${a0}/2.0
variable vatom equal 2.855324*2.855324*${a0}/2.0
variable vatom equal 2.855324*2.855324*2.855324/2.0
variable syy atom c_satom[2]/v_vatom/10000.0

# 4) Relax the slab (now with free y-surfaces) BEFORE gripping it, so the
#    zero-strain state is stress free
min_style cg
thermo 50
thermo_style custom step pe ly pyy
minimize 1.0e-10 1.0e-10 1000 10000
Last active /omp style is pair_style eam/fs/omp
Neighbor list info ...
  update: every = 1 steps, delay = 0 steps, check = yes
  max neighbors/atom: 2000, page size: 100000
  master list distance cutoff = 7.3
  ghost atom cutoff = 7.3
  binsize = 3.65, bins = 8 22 3
  1 neighbor lists, perpetual/occasional/extra = 1 0 0
  (1) pair eam/fs/omp, perpetual
      attributes: half, newton on, omp
      pair build: half/bin/atomonly/newton/omp
      stencil: half/bin/3d
      bin: standard
Per MPI rank memory allocation (min/avg/max) = 11.69 | 11.69 | 11.69 Mbytes
   Step         PotEng           Ly            Pyy      
         0  -6240.1235      78.00351       19782.563    
        50  -6245.2923      78.00351       74.852594    
        60  -6245.2923      78.00351       7.1353167    
Loop time of 0.0266875 on 8 procs for 60 steps with 1534 atoms

776.0% CPU use with 1 MPI tasks x 8 OpenMP threads

Minimization stats:
  Stopping criterion = energy tolerance
  Energy initial, next-to-last, final = 
     -6240.12345027199  -6245.29230287382  -6245.29230337733
  Force two-norm initial, final = 6.7376903 0.0020235929
  Force max component initial, final = 1.0587357 0.00016317462
  Final line search alpha, max atom move = 1 0.00016317462
  Iterations, force evaluations = 60 119

MPI task timing breakdown:
Section |  min time  |  avg time  |  max time  |%varavg| %total
---------------------------------------------------------------
Pair    | 0.022319   | 0.022319   | 0.022319   |   0.0 | 83.63
Neigh   | 0          | 0          | 0          |   0.0 |  0.00
Comm    | 0.0017125  | 0.0017125  | 0.0017125  |   0.0 |  6.42
Output  | 1.5971e-05 | 1.5971e-05 | 1.5971e-05 |   0.0 |  0.06
Modify  | 0.0010746  | 0.0010746  | 0.0010746  |   0.0 |  4.03
Other   |            | 0.001565   |            |       |  5.87

Nlocal:           1534 ave        1534 max        1534 min
Histogram: 1 0 0 0 0 0 0 0 0 0
Nghost:           4953 ave        4953 max        4953 min
Histogram: 1 0 0 0 0 0 0 0 0 0
Neighs:         100904 ave      100904 max      100904 min
Histogram: 1 0 0 0 0 0 0 0 0 0

Total # of neighbors = 100904
Ave neighs/atom = 65.778357
Neighbor list builds = 0
Dangerous builds = 0

# 5) Define the grips from the relaxed extent and freeze their forces.
#    fix setforce records the pre-zeroed total force, so the top grip's
#    reaction force (f_holdtop[2]) measures the load carried by the bicrystal.
variable ylo equal bound(all,ymin)
variable yhi equal bound(all,ymax)
region rtop block INF INF $(v_yhi-v_grip) INF INF INF units box
region rtop block INF INF 33.66606002836699929 INF INF INF units box
region rbot block INF INF INF $(v_ylo+v_grip) INF INF units box
region rbot block INF INF INF -32.845725572123299685 INF INF units box
group gtop region rtop
128 atoms in group gtop
group gbot region rbot
128 atoms in group gbot
group grips union gtop gbot
256 atoms in group grips
group mobile subtract all grips
1278 atoms in group mobile
fix holdtop gtop setforce 0.0 0.0 0.0
fix holdbot gbot setforce 0.0 0.0 0.0
minimize 1.0e-10 1.0e-10 500 5000
Last active /omp style is pair_style eam/fs/omp
Per MPI rank memory allocation (min/avg/max) = 11.69 | 11.69 | 11.69 Mbytes
   Step         PotEng           Ly            Pyy      
        60  -6245.2923      78.527611      7.0876948    
        61  -6245.2923      78.527611      7.0200568    
Loop time of 0.00079996 on 8 procs for 1 steps with 1534 atoms

971.0% CPU use with 1 MPI tasks x 8 OpenMP threads

Minimization stats:
  Stopping criterion = energy tolerance
  Energy initial, next-to-last, final = 
     -6245.29230337732  -6245.29230337732  -6245.29230353119
  Force two-norm initial, final = 0.0018115975 0.0014044679
  Force max component initial, final = 0.00016115746 0.00014537634
  Final line search alpha, max atom move = 1 0.00014537634
  Iterations, force evaluations = 1 2

MPI task timing breakdown:
Section |  min time  |  avg time  |  max time  |%varavg| %total
---------------------------------------------------------------
Pair    | 0.00068407 | 0.00068407 | 0.00068407 |   0.0 | 85.51
Neigh   | 0          | 0          | 0          |   0.0 |  0.00
Comm    | 4.5606e-05 | 4.5606e-05 | 4.5606e-05 |   0.0 |  5.70
Output  | 0          | 0          | 0          |   0.0 |  0.00
Modify  | 3.3092e-05 | 3.3092e-05 | 3.3092e-05 |   0.0 |  4.14
Other   |            | 3.719e-05  |            |       |  4.65

Nlocal:           1534 ave        1534 max        1534 min
Histogram: 1 0 0 0 0 0 0 0 0 0
Nghost:           4953 ave        4953 max        4953 min
Histogram: 1 0 0 0 0 0 0 0 0 0
Neighs:         100596 ave      100596 max      100596 min
Histogram: 1 0 0 0 0 0 0 0 0 0

Total # of neighbors = 100596
Ave neighs/atom = 65.577575
Neighbor list builds = 0
Dangerous builds = 0

# 6) Stress-strain bookkeeping (engineering strain; tensile stress in GPa from
#    the grip reaction force per cross-section, converting eV/Ang^3 -> GPa)
variable count  equal 0
variable area   equal lx*lz
variable L0     equal $((v_yhi-v_grip)-(v_ylo+v_grip))
variable L0     equal 66.511785600490298975
variable strain equal 2.0*v_delta*v_count/v_L0
variable stress equal -f_holdtop[2]/v_area*160.21766
print "strain,stress_GPa" file stress-fracture.csv screen no
print "$(v_strain:%.5f),$(v_stress:%.5f)" append stress-fracture.csv screen no
write_dump all custom fracture.dump id type x y z v_syy modify append no

# 7) Quasi-static loading loop: displace grips, minimize, record
variable i loop ${nsteps}
variable i loop 80
label loop
displace_atoms gtop move 0  ${delta} 0 units box
displace_atoms gtop move 0  0.06 0 units box
Displacing atoms ...
displace_atoms gbot move 0 -${delta} 0 units box
displace_atoms gbot move 0 -0.06 0 units box
Displacing atoms ...
minimize 1.0e-10 1.0e-10 500 5000
Last active /omp style is pair_style eam/fs/omp
Per MPI rank memory allocation (min/avg/max) = 12.44 | 12.44 | 12.44 Mbytes
   Step         PotEng           Ly            Pyy      
        61  -6244.5578      78.647611     -4820.487     
        94  -6245.2475      78.647611     -4601.6084    
Loop time of 0.0134715 on 8 procs for 33 steps with 1534 atoms

824.8% CPU use with 1 MPI tasks x 8 OpenMP threads

Minimization stats:
  Stopping criterion = energy tolerance
  Energy initial, next-to-last, final = 
     -6244.55779733721   -6245.2475286672  -6245.24752900626
  Force two-norm initial, final = 2.4575852 0.0014514996
  Force max component initial, final = 0.29402986 0.00011049582
  Final line search alpha, max atom move = 1 0.00011049582
  Iterations, force evaluations = 33 66

MPI task timing breakdown:
Section |  min time  |  avg time  |  max time  |%varavg| %total
---------------------------------------------------------------
Pair    | 0.010882   | 0.010882   | 0.010882   |   0.0 | 80.78
Neigh   | 0          | 0          | 0          |   0.0 |  0.00
Comm    | 0.00096412 | 0.00096412 | 0.00096412 |   0.0 |  7.16
Output  | 0          | 0          | 0          |   0.0 |  0.00
Modify  | 0.00071602 | 0.00071602 | 0.00071602 |   0.0 |  5.32
Other   |            | 0.0009093  |            |       |  6.75

Nlocal:           1534 ave        1534 max        1534 min
Histogram: 1 0 0 0 0 0 0 0 0 0
Nghost:           4953 ave        4953 max        4953 min
Histogram: 1 0 0 0 0 0 0 0 0 0
Neighs:         100596 ave      100596 max      100596 min
Histogram: 1 0 0 0 0 0 0 0 0 0

Total # of neighbors = 100596
Ave neighs/atom = 65.577575
Neighbor list builds = 0
Dangerous builds = 0
variable count equal $i
variable count equal 1
print "$(v_strain:%.5f),$(v_stress:%.5f)" append stress-fracture.csv screen no
write_dump all custom fracture.dump id type x y z v_syy modify append yes
next i
jump SELF loop
displace_atoms gtop move 0  ${delta} 0 units box
displace_atoms gtop move 0  0.06 0 units box
Displacing atoms ...
displace_atoms gbot move 0 -${delta} 0 units box
displace_atoms gbot move 0 -0.06 0 units box
Displacing atoms ...
minimize 1.0e-10 1.0e-10 500 5000
Last active /omp style is pair_style eam/fs/omp
Per MPI rank memory allocation (min/avg/max) = 12.44 | 12.44 | 12.44 Mbytes
   Step         PotEng           Ly            Pyy      
        94  -6244.4284      78.767611     -9346.0862    
       100  -6245.0536      78.767611     -9652.1896    
       127  -6245.1126      78.767611     -9233.2747    
Loop time of 0.0155935 on 8 procs for 33 steps with 1534 atoms

769.3% CPU use with 1 MPI tasks x 8 OpenMP threads

Minimization stats:
  Stopping criterion = energy tolerance
  Energy initial, next-to-last, final = 
       -6244.428374585  -6245.11263051507  -6245.11263077861
  Force two-norm initial, final = 2.4283388 0.0012849186
  Force max component initial, final = 0.29169365 0.00010198653
  Final line search alpha, max atom move = 1 0.00010198653
  Iterations, force evaluations = 33 66

MPI task timing breakdown:
Section |  min time  |  avg time  |  max time  |%varavg| %total
---------------------------------------------------------------
Pair    | 0.012739   | 0.012739   | 0.012739   |   0.0 | 81.69
Neigh   | 0          | 0          | 0          |   0.0 |  0.00
Comm    | 0.0010975  | 0.0010975  | 0.0010975  |   0.0 |  7.04
Output  | 6.152e-06  | 6.152e-06  | 6.152e-06  |   0.0 |  0.04
Modify  | 0.00078293 | 0.00078293 | 0.00078293 |   0.0 |  5.02
Other   |            | 0.0009679  |            |       |  6.21

Nlocal:           1534 ave        1534 max        1534 min
Histogram: 1 0 0 0 0 0 0 0 0 0
Nghost:           4953 ave        4953 max        4953 min
Histogram: 1 0 0 0 0 0 0 0 0 0
Neighs:         100472 ave      100472 max      100472 min
Histogram: 1 0 0 0 0 0 0 0 0 0

Total # of neighbors = 100472
Ave neighs/atom = 65.496741
Neighbor list builds = 0
Dangerous builds = 0
variable count equal $i
variable count equal 2
print "$(v_strain:%.5f),$(v_stress:%.5f)" append stress-fracture.csv screen no
write_dump all custom fracture.dump id type x y z v_syy modify append yes
next i
jump SELF loop
displace_atoms gtop move 0  ${delta} 0 units box
displace_atoms gtop move 0  0.06 0 units box
Displacing atoms ...
displace_atoms gbot move 0 -${delta} 0 units box
displace_atoms gbot move 0 -0.06 0 units box
Displacing atoms ...
minimize 1.0e-10 1.0e-10 500 5000
Last active /omp style is pair_style eam/fs/omp
Per MPI rank memory allocation (min/avg/max) = 12.44 | 12.44 | 12.44 Mbytes
   Step         PotEng           Ly            Pyy      
       127  -6244.2101      78.887611     -13885.667    
       150  -6244.8873      78.887611     -13891.824    
       160  -6244.8873      78.887611     -13879.954    
Loop time of 0.015285 on 8 procs for 33 steps with 1534 atoms

778.2% CPU use with 1 MPI tasks x 8 OpenMP threads

Minimization stats:
  Stopping criterion = energy tolerance
  Energy initial, next-to-last, final = 
     -6244.21014108395  -6244.88728327674  -6244.88728352825
  Force two-norm initial, final = 2.3954071 0.0012206414
  Force max component initial, final = 0.2891121 0.00010757506
  Final line search alpha, max atom move = 1 0.00010757506
  Iterations, force evaluations = 33 66

MPI task timing breakdown:
Section |  min time  |  avg time  |  max time  |%varavg| %total
---------------------------------------------------------------
Pair    | 0.012726   | 0.012726   | 0.012726   |   0.0 | 83.26
Neigh   | 0          | 0          | 0          |   0.0 |  0.00
Comm    | 0.00095918 | 0.00095918 | 0.00095918 |   0.0 |  6.28
Output  | 8.035e-06  | 8.035e-06  | 8.035e-06  |   0.0 |  0.05
Modify  | 0.0007293  | 0.0007293  | 0.0007293  |   0.0 |  4.77
Other   |            | 0.0008621  |            |       |  5.64

Nlocal:           1534 ave        1534 max        1534 min
Histogram: 1 0 0 0 0 0 0 0 0 0
Nghost:           4953 ave        4953 max        4953 min
Histogram: 1 0 0 0 0 0 0 0 0 0
Neighs:         100426 ave      100426 max      100426 min
Histogram: 1 0 0 0 0 0 0 0 0 0

Total # of neighbors = 100426
Ave neighs/atom = 65.466754
Neighbor list builds = 0
Dangerous builds = 0
variable count equal $i
variable count equal 3
print "$(v_strain:%.5f),$(v_stress:%.5f)" append stress-fracture.csv screen no
write_dump all custom fracture.dump id type x y z v_syy modify append yes
next i
jump SELF loop
displace_atoms gtop move 0  ${delta} 0 units box
displace_atoms gtop move 0  0.06 0 units box
Displacing atoms ...
displace_atoms gbot move 0 -${delta} 0 units box
displace_atoms gbot move 0 -0.06 0 units box
Displacing atoms ...
minimize 1.0e-10 1.0e-10 500 5000
Last active /omp style is pair_style eam/fs/omp
Per MPI rank memory allocation (min/avg/max) = 12.44 | 12.44 | 12.44 Mbytes
   Step         PotEng           Ly            Pyy      
       160  -6243.9027      79.007611     -18430.82     
       192  -6244.5713      79.007611     -18535.344    
Loop time of 0.0133388 on 8 procs for 32 steps with 1534 atoms

780.2% CPU use with 1 MPI tasks x 8 OpenMP threads

Minimization stats:
  Stopping criterion = energy tolerance
  Energy initial, next-to-last, final = 
     -6243.90271505337  -6244.57129374733  -6244.57129435165
  Force two-norm initial, final = 2.3589408 0.0019747894
  Force max component initial, final = 0.28629955 0.00014248069
  Final line search alpha, max atom move = 1 0.00014248069
  Iterations, force evaluations = 32 64

MPI task timing breakdown:
Section |  min time  |  avg time  |  max time  |%varavg| %total
---------------------------------------------------------------
Pair    | 0.010858   | 0.010858   | 0.010858   |   0.0 | 81.40
Neigh   | 0          | 0          | 0          |   0.0 |  0.00
Comm    | 0.00093097 | 0.00093097 | 0.00093097 |   0.0 |  6.98
Output  | 0          | 0          | 0          |   0.0 |  0.00
Modify  | 0.00069926 | 0.00069926 | 0.00069926 |   0.0 |  5.24
Other   |            | 0.0008503  |            |       |  6.37

Nlocal:           1534 ave        1534 max        1534 min
Histogram: 1 0 0 0 0 0 0 0 0 0
Nghost:           4953 ave        4953 max        4953 min
Histogram: 1 0 0 0 0 0 0 0 0 0
Neighs:         100252 ave      100252 max      100252 min
Histogram: 1 0 0 0 0 0 0 0 0 0

Total # of neighbors = 100252
Ave neighs/atom = 65.353325
Neighbor list builds = 0
Dangerous builds = 0
variable count equal $i
variable count equal 4
print "$(v_strain:%.5f),$(v_stress:%.5f)" append stress-fracture.csv screen no
write_dump all custom fracture.dump id type x y z v_syy modify append yes
next i
jump SELF loop
displace_atoms gtop move 0  ${delta} 0 units box
displace_atoms gtop move 0  0.06 0 units box
Displacing atoms ...
displace_atoms gbot move 0 -${delta} 0 units box
displace_atoms gbot move 0 -0.06 0 units box
Displacing atoms ...
minimize 1.0e-10 1.0e-10 500 5000
Last active /omp style is pair_style eam/fs/omp
Per MPI rank memory allocation (min/avg/max) = 12.44 | 12.44 | 12.44 Mbytes
   Step         PotEng           Ly            Pyy      
       192  -6243.5062      79.127611     -22975.435    
       200  -6244.1277      79.127611     -23549.959    
       225  -6244.1646      79.127611     -23192.854    
Loop time of 0.0157417 on 8 procs for 33 steps with 1534 atoms

809.2% CPU use with 1 MPI tasks x 8 OpenMP threads

Minimization stats:
  Stopping criterion = energy tolerance
  Energy initial, next-to-last, final = 
     -6243.50621775551  -6244.16459992187  -6244.16460016168
  Force two-norm initial, final = 2.3189642 0.0011677434
  Force max component initial, final = 0.28325785 9.120759e-05
  Final line search alpha, max atom move = 1 9.120759e-05
  Iterations, force evaluations = 33 66

MPI task timing breakdown:
Section |  min time  |  avg time  |  max time  |%varavg| %total
---------------------------------------------------------------
Pair    | 0.013001   | 0.013001   | 0.013001   |   0.0 | 82.59
Neigh   | 0          | 0          | 0          |   0.0 |  0.00
Comm    | 0.0010567  | 0.0010567  | 0.0010567  |   0.0 |  6.71
Output  | 6.042e-06  | 6.042e-06  | 6.042e-06  |   0.0 |  0.04
Modify  | 0.00074301 | 0.00074301 | 0.00074301 |   0.0 |  4.72
Other   |            | 0.000935   |            |       |  5.94

Nlocal:           1534 ave        1534 max        1534 min
Histogram: 1 0 0 0 0 0 0 0 0 0
Nghost:           4953 ave        4953 max        4953 min
Histogram: 1 0 0 0 0 0 0 0 0 0
Neighs:         100230 ave      100230 max      100230 min
Histogram: 1 0 0 0 0 0 0 0 0 0

Total # of neighbors = 100230
Ave neighs/atom = 65.338983
Neighbor list builds = 0
Dangerous builds = 0
variable count equal $i
variable count equal 5
print "$(v_strain:%.5f),$(v_stress:%.5f)" append stress-fracture.csv screen no
write_dump all custom fracture.dump id type x y z v_syy modify append yes
next i
jump SELF loop
displace_atoms gtop move 0  ${delta} 0 units box
displace_atoms gtop move 0  0.06 0 units box
Displacing atoms ...
displace_atoms gbot move 0 -${delta} 0 units box
displace_atoms gbot move 0 -0.06 0 units box
Displacing atoms ...
minimize 1.0e-10 1.0e-10 500 5000
Last active /omp style is pair_style eam/fs/omp
Per MPI rank memory allocation (min/avg/max) = 12.44 | 12.44 | 12.44 Mbytes
   Step         PotEng           Ly            Pyy      
       225  -6243.0209      79.247611     -27512.831    
       250  -6243.6672      79.247611     -27850.891    
       257  -6243.6672      79.247611     -27847.352    
Loop time of 0.0229383 on 8 procs for 32 steps with 1534 atoms

795.7% CPU use with 1 MPI tasks x 8 OpenMP threads

Minimization stats:
  Stopping criterion = energy tolerance
  Energy initial, next-to-last, final = 
     -6243.02090210115  -6243.66724236386  -6243.66724292534
  Force two-norm initial, final = 2.2756776 0.0019595238
  Force max component initial, final = 0.27997562 0.00017632651
  Final line search alpha, max atom move = 1 0.00017632651
  Iterations, force evaluations = 32 64

MPI task timing breakdown:
Section |  min time  |  avg time  |  max time  |%varavg| %total
---------------------------------------------------------------
Pair    | 0.019413   | 0.019413   | 0.019413   |   0.0 | 84.63
Neigh   | 0          | 0          | 0          |   0.0 |  0.00
Comm    | 0.0013789  | 0.0013789  | 0.0013789  |   0.0 |  6.01
Output  | 1.6661e-05 | 1.6661e-05 | 1.6661e-05 |   0.0 |  0.07
Modify  | 0.00080706 | 0.00080706 | 0.00080706 |   0.0 |  3.52
Other   |            | 0.001322   |            |       |  5.76

Nlocal:           1534 ave        1534 max        1534 min
Histogram: 1 0 0 0 0 0 0 0 0 0
Nghost:           4953 ave        4953 max        4953 min
Histogram: 1 0 0 0 0 0 0 0 0 0
Neighs:         100216 ave      100216 max      100216 min
Histogram: 1 0 0 0 0 0 0 0 0 0

Total # of neighbors = 100216
Ave neighs/atom = 65.329857
Neighbor list builds = 0
Dangerous builds = 0
variable count equal $i
variable count equal 6
print "$(v_strain:%.5f),$(v_stress:%.5f)" append stress-fracture.csv screen no
write_dump all custom fracture.dump id type x y z v_syy modify append yes
next i
jump SELF loop
displace_atoms gtop move 0  ${delta} 0 units box
displace_atoms gtop move 0  0.06 0 units box
Displacing atoms ...
displace_atoms gbot move 0 -${delta} 0 units box
displace_atoms gbot move 0 -0.06 0 units box
Displacing atoms ...
minimize 1.0e-10 1.0e-10 500 5000
Last active /omp style is pair_style eam/fs/omp
Per MPI rank memory allocation (min/avg/max) = 12.44 | 12.44 | 12.44 Mbytes
   Step         PotEng           Ly            Pyy      
       257  -6242.4471      79.367611     -32038.076    
       290  -6243.0794      79.367611     -32492.386    
Loop time of 0.02103 on 8 procs for 33 steps with 1534 atoms

795.0% CPU use with 1 MPI tasks x 8 OpenMP threads

Minimization stats:
  Stopping criterion = energy tolerance
  Energy initial, next-to-last, final = 
     -6242.44705417782  -6243.07937206027  -6243.07937232386
  Force two-norm initial, final = 2.2289632 0.0012096823
  Force max component initial, final = 0.27645392 0.00011002602
  Final line search alpha, max atom move = 1 0.00011002602
  Iterations, force evaluations = 33 66

MPI task timing breakdown:
Section |  min time  |  avg time  |  max time  |%varavg| %total
---------------------------------------------------------------
Pair    | 0.017718   | 0.017718   | 0.017718   |   0.0 | 84.25
Neigh   | 0          | 0          | 0          |   0.0 |  0.00
Comm    | 0.0013204  | 0.0013204  | 0.0013204  |   0.0 |  6.28
Output  | 0          | 0          | 0          |   0.0 |  0.00
Modify  | 0.00079089 | 0.00079089 | 0.00079089 |   0.0 |  3.76
Other   |            | 0.001201   |            |       |  5.71

Nlocal:           1534 ave        1534 max        1534 min
Histogram: 1 0 0 0 0 0 0 0 0 0
Nghost:           4953 ave        4953 max        4953 min
Histogram: 1 0 0 0 0 0 0 0 0 0
Neighs:         100186 ave      100186 max      100186 min
Histogram: 1 0 0 0 0 0 0 0 0 0

Total # of neighbors = 100186
Ave neighs/atom = 65.3103
Neighbor list builds = 0
Dangerous builds = 0
variable count equal $i
variable count equal 7
print "$(v_strain:%.5f),$(v_stress:%.5f)" append stress-fracture.csv screen no
write_dump all custom fracture.dump id type x y z v_syy modify append yes
next i
jump SELF loop
displace_atoms gtop move 0  ${delta} 0 units box
displace_atoms gtop move 0  0.06 0 units box
Displacing atoms ...
displace_atoms gbot move 0 -${delta} 0 units box
displace_atoms gbot move 0 -0.06 0 units box
Displacing atoms ...
minimize 1.0e-10 1.0e-10 500 5000
Last active /omp style is pair_style eam/fs/omp
Per MPI rank memory allocation (min/avg/max) = 12.44 | 12.44 | 12.44 Mbytes
   Step         PotEng           Ly            Pyy      
       290  -6241.7848      79.487611     -36545.541    
       300  -6242.3786      79.487611     -37398.689    
       323  -6242.4015      79.487611     -37093.515    
Loop time of 0.0222991 on 8 procs for 33 steps with 1534 atoms

817.4% CPU use with 1 MPI tasks x 8 OpenMP threads

Minimization stats:
  Stopping criterion = energy tolerance
  Energy initial, next-to-last, final = 
     -6241.78481923834  -6242.40145339567  -6242.40145366204
  Force two-norm initial, final = 2.1794633 0.0013220174
  Force max component initial, final = 0.27265974 0.0001088461
  Final line search alpha, max atom move = 1 0.0001088461
  Iterations, force evaluations = 33 66

MPI task timing breakdown:
Section |  min time  |  avg time  |  max time  |%varavg| %total
---------------------------------------------------------------
Pair    | 0.018577   | 0.018577   | 0.018577   |   0.0 | 83.31
Neigh   | 0          | 0          | 0          |   0.0 |  0.00
Comm    | 0.0014566  | 0.0014566  | 0.0014566  |   0.0 |  6.53
Output  | 1.4628e-05 | 1.4628e-05 | 1.4628e-05 |   0.0 |  0.07
Modify  | 0.00088575 | 0.00088575 | 0.00088575 |   0.0 |  3.97
Other   |            | 0.001365   |            |       |  6.12

Nlocal:           1534 ave        1534 max        1534 min
Histogram: 1 0 0 0 0 0 0 0 0 0
Nghost:           4953 ave        4953 max        4953 min
Histogram: 1 0 0 0 0 0 0 0 0 0
Neighs:         100158 ave      100158 max      100158 min
Histogram: 1 0 0 0 0 0 0 0 0 0

Total # of neighbors = 100158
Ave neighs/atom = 65.292047
Neighbor list builds = 0
Dangerous builds = 0
variable count equal $i
variable count equal 8
print "$(v_strain:%.5f),$(v_stress:%.5f)" append stress-fracture.csv screen no
write_dump all custom fracture.dump id type x y z v_syy modify append yes
next i
jump SELF loop
displace_atoms gtop move 0  ${delta} 0 units box
displace_atoms gtop move 0  0.06 0 units box
Displacing atoms ...
displace_atoms gbot move 0 -${delta} 0 units box
displace_atoms gbot move 0 -0.06 0 units box
Displacing atoms ...
minimize 1.0e-10 1.0e-10 500 5000
Last active /omp style is pair_style eam/fs/omp
Per MPI rank memory allocation (min/avg/max) = 12.44 | 12.44 | 12.44 Mbytes
   Step         PotEng           Ly            Pyy      
       323  -6241.0347      79.607611     -41003.723    
       350  -6241.6351      79.607611     -41583.119    
       356  -6241.6351      79.607611     -41581.13     
Loop time of 0.0182987 on 8 procs for 33 steps with 1534 atoms

784.7% CPU use with 1 MPI tasks x 8 OpenMP threads

Minimization stats:
  Stopping criterion = energy tolerance
  Energy initial, next-to-last, final = 
     -6241.03465701167   -6241.6351387998  -6241.63513927485
  Force two-norm initial, final = 2.1277854 0.0015956959
  Force max component initial, final = 0.2686147 0.00012270911
  Final line search alpha, max atom move = 1 0.00012270911
  Iterations, force evaluations = 33 66

MPI task timing breakdown:
Section |  min time  |  avg time  |  max time  |%varavg| %total
---------------------------------------------------------------
Pair    | 0.015384   | 0.015384   | 0.015384   |   0.0 | 84.07
Neigh   | 0          | 0          | 0          |   0.0 |  0.00
Comm    | 0.0010829  | 0.0010829  | 0.0010829  |   0.0 |  5.92
Output  | 1.6461e-05 | 1.6461e-05 | 1.6461e-05 |   0.0 |  0.09
Modify  | 0.00073287 | 0.00073287 | 0.00073287 |   0.0 |  4.01
Other   |            | 0.001082   |            |       |  5.92

Nlocal:           1534 ave        1534 max        1534 min
Histogram: 1 0 0 0 0 0 0 0 0 0
Nghost:           4953 ave        4953 max        4953 min
Histogram: 1 0 0 0 0 0 0 0 0 0
Neighs:         100110 ave      100110 max      100110 min
Histogram: 1 0 0 0 0 0 0 0 0 0

Total # of neighbors = 100110
Ave neighs/atom = 65.260756
Neighbor list builds = 0
Dangerous builds = 0
variable count equal $i
variable count equal 9
print "$(v_strain:%.5f),$(v_stress:%.5f)" append stress-fracture.csv screen no
write_dump all custom fracture.dump id type x y z v_syy modify append yes
next i
jump SELF loop
displace_atoms gtop move 0  ${delta} 0 units box
displace_atoms gtop move 0  0.06 0 units box
Displacing atoms ...
displace_atoms gbot move 0 -${delta} 0 units box
displace_atoms gbot move 0 -0.06 0 units box
Displacing atoms ...
minimize 1.0e-10 1.0e-10 500 5000
Last active /omp style is pair_style eam/fs/omp
Per MPI rank memory allocation (min/avg/max) = 12.44 | 12.44 | 12.44 Mbytes
   Step         PotEng           Ly            Pyy      
       356  -6240.199       79.727611     -45345.677    
       389  -6240.7828      79.727611     -45942.474    
Loop time of 0.0147106 on 8 procs for 33 steps with 1534 atoms

811.4% CPU use with 1 MPI tasks x 8 OpenMP threads

Minimization stats:
  Stopping criterion = energy tolerance
  Energy initial, next-to-last, final = 
     -6240.19904446719  -6240.78283675051  -6240.78283736737
  Force two-norm initial, final = 2.0753514 0.0020433791
  Force max component initial, final = 0.2645427 0.00018591013
  Final line search alpha, max atom move = 1 0.00018591013
  Iterations, force evaluations = 33 66

MPI task timing breakdown:
Section |  min time  |  avg time  |  max time  |%varavg| %total
---------------------------------------------------------------
Pair    | 0.012137   | 0.012137   | 0.012137   |   0.0 | 82.51
Neigh   | 0          | 0          | 0          |   0.0 |  0.00
Comm    | 0.00097219 | 0.00097219 | 0.00097219 |   0.0 |  6.61
Output  | 0          | 0          | 0          |   0.0 |  0.00
Modify  | 0.0007165  | 0.0007165  | 0.0007165  |   0.0 |  4.87
Other   |            | 0.0008848  |            |       |  6.01

Nlocal:           1534 ave        1534 max        1534 min
Histogram: 1 0 0 0 0 0 0 0 0 0
Nghost:           4953 ave        4953 max        4953 min
Histogram: 1 0 0 0 0 0 0 0 0 0
Neighs:         100084 ave      100084 max      100084 min
Histogram: 1 0 0 0 0 0 0 0 0 0

Total # of neighbors = 100084
Ave neighs/atom = 65.243807
Neighbor list builds = 0
Dangerous builds = 0
variable count equal $i
variable count equal 10
print "$(v_strain:%.5f),$(v_stress:%.5f)" append stress-fracture.csv screen no
write_dump all custom fracture.dump id type x y z v_syy modify append yes
next i
jump SELF loop
displace_atoms gtop move 0  ${delta} 0 units box
displace_atoms gtop move 0  0.06 0 units box
Displacing atoms ...
displace_atoms gbot move 0 -${delta} 0 units box
displace_atoms gbot move 0 -0.06 0 units box
Displacing atoms ...
minimize 1.0e-10 1.0e-10 500 5000
Last active /omp style is pair_style eam/fs/omp
Per MPI rank memory allocation (min/avg/max) = 12.44 | 12.44 | 12.44 Mbytes
   Step         PotEng           Ly            Pyy      
       389  -6239.2803      79.847611     -49559.902    
       400  -6239.8297      79.847611     -50393.76     
       423  -6239.8471      79.847611     -50171.648    
Loop time of 0.0163159 on 8 procs for 34 steps with 1534 atoms

783.6% CPU use with 1 MPI tasks x 8 OpenMP threads

Minimization stats:
  Stopping criterion = energy tolerance
  Energy initial, next-to-last, final = 
     -6239.28032018951  -6239.84711337579  -6239.84711371574
  Force two-norm initial, final = 2.0228339 0.001462453
  Force max component initial, final = 0.2604641 0.00010733464
  Final line search alpha, max atom move = 1 0.00010733464
  Iterations, force evaluations = 34 68

MPI task timing breakdown:
Section |  min time  |  avg time  |  max time  |%varavg| %total
---------------------------------------------------------------
Pair    | 0.013563   | 0.013563   | 0.013563   |   0.0 | 83.13
Neigh   | 0          | 0          | 0          |   0.0 |  0.00
Comm    | 0.0010663  | 0.0010663  | 0.0010663  |   0.0 |  6.54
Output  | 1.045e-05  | 1.045e-05  | 1.045e-05  |   0.0 |  0.06
Modify  | 0.00074983 | 0.00074983 | 0.00074983 |   0.0 |  4.60
Other   |            | 0.0009264  |            |       |  5.68

Nlocal:           1534 ave        1534 max        1534 min
Histogram: 1 0 0 0 0 0 0 0 0 0
Nghost:           4953 ave        4953 max        4953 min
Histogram: 1 0 0 0 0 0 0 0 0 0
Neighs:          99988 ave       99988 max       99988 min
Histogram: 1 0 0 0 0 0 0 0 0 0

Total # of neighbors = 99988
Ave neighs/atom = 65.181226
Neighbor list builds = 0
Dangerous builds = 0
variable count equal $i
variable count equal 11
print "$(v_strain:%.5f),$(v_stress:%.5f)" append stress-fracture.csv screen no
write_dump all custom fracture.dump id type x y z v_syy modify append yes
next i
jump SELF loop
displace_atoms gtop move 0  ${delta} 0 units box
displace_atoms gtop move 0  0.06 0 units box
Displacing atoms ...
displace_atoms gbot move 0 -${delta} 0 units box
displace_atoms gbot move 0 -0.06 0 units box
Displacing atoms ...
minimize 1.0e-10 1.0e-10 500 5000
Last active /omp style is pair_style eam/fs/omp
Per MPI rank memory allocation (min/avg/max) = 12.44 | 12.44 | 12.44 Mbytes
   Step         PotEng           Ly            Pyy      
       423  -6238.2809      79.967611     -53641.773    
       450  -6238.8306      79.967611     -54269.875    
       453  -6238.8306      79.967611     -54268.282    
Loop time of 0.0160043 on 8 procs for 30 steps with 1534 atoms

796.5% CPU use with 1 MPI tasks x 8 OpenMP threads

Minimization stats:
  Stopping criterion = energy tolerance
  Energy initial, next-to-last, final = 
     -6238.28085140292   -6238.8305831857   -6238.8305836757
  Force two-norm initial, final = 1.9709833 0.002376083
  Force max component initial, final = 0.25638529 0.00019876523
  Final line search alpha, max atom move = 1 0.00019876523
  Iterations, force evaluations = 30 60

MPI task timing breakdown:
Section |  min time  |  avg time  |  max time  |%varavg| %total
---------------------------------------------------------------
Pair    | 0.013549   | 0.013549   | 0.013549   |   0.0 | 84.66
Neigh   | 0          | 0          | 0          |   0.0 |  0.00
Comm    | 0.00090326 | 0.00090326 | 0.00090326 |   0.0 |  5.64
Output  | 1.7664e-05 | 1.7664e-05 | 1.7664e-05 |   0.0 |  0.11
Modify  | 0.00068877 | 0.00068877 | 0.00068877 |   0.0 |  4.30
Other   |            | 0.0008456  |            |       |  5.28

Nlocal:           1534 ave        1534 max        1534 min
Histogram: 1 0 0 0 0 0 0 0 0 0
Nghost:           4953 ave        4953 max        4953 min
Histogram: 1 0 0 0 0 0 0 0 0 0
Neighs:          99920 ave       99920 max       99920 min
Histogram: 1 0 0 0 0 0 0 0 0 0

Total # of neighbors = 99920
Ave neighs/atom = 65.136897
Neighbor list builds = 0
Dangerous builds = 0
variable count equal $i
variable count equal 12
print "$(v_strain:%.5f),$(v_stress:%.5f)" append stress-fracture.csv screen no
write_dump all custom fracture.dump id type x y z v_syy modify append yes
next i
jump SELF loop
displace_atoms gtop move 0  ${delta} 0 units box
displace_atoms gtop move 0  0.06 0 units box
Displacing atoms ...
displace_atoms gbot move 0 -${delta} 0 units box
displace_atoms gbot move 0 -0.06 0 units box
Displacing atoms ...
minimize 1.0e-10 1.0e-10 500 5000
Last active /omp style is pair_style eam/fs/omp
Per MPI rank memory allocation (min/avg/max) = 12.44 | 12.44 | 12.44 Mbytes
   Step         PotEng           Ly            Pyy      
       453  -6237.2028      80.087611     -57589.929    
       482  -6237.7359      80.087611     -58228.478    
Loop time of 0.012544 on 8 procs for 29 steps with 1534 atoms

767.6% CPU use with 1 MPI tasks x 8 OpenMP threads

Minimization stats:
  Stopping criterion = energy tolerance
  Energy initial, next-to-last, final = 
     -6237.20279708236  -6237.73590444152  -6237.73590490372
  Force two-norm initial, final = 1.9192841 0.0020483189
  Force max component initial, final = 0.25225147 0.00018493214
  Final line search alpha, max atom move = 1 0.00018493214
  Iterations, force evaluations = 29 58

MPI task timing breakdown:
Section |  min time  |  avg time  |  max time  |%varavg| %total
---------------------------------------------------------------
Pair    | 0.010313   | 0.010313   | 0.010313   |   0.0 | 82.21
Neigh   | 0          | 0          | 0          |   0.0 |  0.00
Comm    | 0.00084571 | 0.00084571 | 0.00084571 |   0.0 |  6.74
Output  | 0          | 0          | 0          |   0.0 |  0.00
Modify  | 0.00062755 | 0.00062755 | 0.00062755 |   0.0 |  5.00
Other   |            | 0.0007582  |            |       |  6.04

Nlocal:           1534 ave        1534 max        1534 min
Histogram: 1 0 0 0 0 0 0 0 0 0
Nghost:           4953 ave        4953 max        4953 min
Histogram: 1 0 0 0 0 0 0 0 0 0
Neighs:          99880 ave       99880 max       99880 min
Histogram: 1 0 0 0 0 0 0 0 0 0

Total # of neighbors = 99880
Ave neighs/atom = 65.110821
Neighbor list builds = 0
Dangerous builds = 0
variable count equal $i
variable count equal 13
print "$(v_strain:%.5f),$(v_stress:%.5f)" append stress-fracture.csv screen no
write_dump all custom fracture.dump id type x y z v_syy modify append yes
next i
jump SELF loop
displace_atoms gtop move 0  ${delta} 0 units box
displace_atoms gtop move 0  0.06 0 units box
Displacing atoms ...
displace_atoms gbot move 0 -${delta} 0 units box
displace_atoms gbot move 0 -0.06 0 units box
Displacing atoms ...
minimize 1.0e-10 1.0e-10 500 5000
Last active /omp style is pair_style eam/fs/omp
Per MPI rank memory allocation (min/avg/max) = 12.44 | 12.44 | 12.44 Mbytes
   Step         PotEng           Ly            Pyy      
       482  -6236.0496      80.207611     -61402.062    
       500  -6236.5656      80.207611     -62050.866    
       511  -6236.5658      80.207611     -62049.359    
Loop time of 0.0132969 on 8 procs for 29 steps with 1534 atoms

782.0% CPU use with 1 MPI tasks x 8 OpenMP threads

Minimization stats:
  Stopping criterion = energy tolerance
  Energy initial, next-to-last, final = 
      -6236.0496098436   -6236.5657766272   -6236.5657771569
  Force two-norm initial, final = 1.8689504 0.0019977542
  Force max component initial, final = 0.24817569 0.0001956525
  Final line search alpha, max atom move = 1 0.0001956525
  Iterations, force evaluations = 29 58

MPI task timing breakdown:
Section |  min time  |  avg time  |  max time  |%varavg| %total
---------------------------------------------------------------
Pair    | 0.011031   | 0.011031   | 0.011031   |   0.0 | 82.96
Neigh   | 0          | 0          | 0          |   0.0 |  0.00
Comm    | 0.00085918 | 0.00085918 | 0.00085918 |   0.0 |  6.46
Output  | 7.615e-06  | 7.615e-06  | 7.615e-06  |   0.0 |  0.06
Modify  | 0.00063358 | 0.00063358 | 0.00063358 |   0.0 |  4.76
Other   |            | 0.0007651  |            |       |  5.75

Nlocal:           1534 ave        1534 max        1534 min
Histogram: 1 0 0 0 0 0 0 0 0 0
Nghost:           4953 ave        4953 max        4953 min
Histogram: 1 0 0 0 0 0 0 0 0 0
Neighs:          99850 ave       99850 max       99850 min
Histogram: 1 0 0 0 0 0 0 0 0 0

Total # of neighbors = 99850
Ave neighs/atom = 65.091265
Neighbor list builds = 0
Dangerous builds = 0
variable count equal $i
variable count equal 14
print "$(v_strain:%.5f),$(v_stress:%.5f)" append stress-fracture.csv screen no
write_dump all custom fracture.dump id type x y z v_syy modify append yes
next i
jump SELF loop
displace_atoms gtop move 0  ${delta} 0 units box
displace_atoms gtop move 0  0.06 0 units box
Displacing atoms ...
displace_atoms gbot move 0 -${delta} 0 units box
displace_atoms gbot move 0 -0.06 0 units box
Displacing atoms ...
minimize 1.0e-10 1.0e-10 500 5000
Last active /omp style is pair_style eam/fs/omp
Per MPI rank memory allocation (min/avg/max) = 12.44 | 12.44 | 12.44 Mbytes
   Step         PotEng           Ly            Pyy      
       511  -6234.8239      80.327611     -65075.137    
       539  -6235.3229      80.327611     -65732.171    
Loop time of 0.0158057 on 8 procs for 28 steps with 1534 atoms

799.0% CPU use with 1 MPI tasks x 8 OpenMP threads

Minimization stats:
  Stopping criterion = energy tolerance
  Energy initial, next-to-last, final = 
     -6234.82387226877   -6235.3229438445  -6235.32294440858
  Force two-norm initial, final = 1.8194195 0.0021255553
  Force max component initial, final = 0.24409582 0.00022393387
  Final line search alpha, max atom move = 1 0.00022393387
  Iterations, force evaluations = 28 56

MPI task timing breakdown:
Section |  min time  |  avg time  |  max time  |%varavg| %total
---------------------------------------------------------------
Pair    | 0.013502   | 0.013502   | 0.013502   |   0.0 | 85.42
Neigh   | 0          | 0          | 0          |   0.0 |  0.00
Comm    | 0.00087541 | 0.00087541 | 0.00087541 |   0.0 |  5.54
Output  | 0          | 0          | 0          |   0.0 |  0.00
Modify  | 0.00061148 | 0.00061148 | 0.00061148 |   0.0 |  3.87
Other   |            | 0.0008168  |            |       |  5.17

Nlocal:           1534 ave        1534 max        1534 min
Histogram: 1 0 0 0 0 0 0 0 0 0
Nghost:           4953 ave        4953 max        4953 min
Histogram: 1 0 0 0 0 0 0 0 0 0
Neighs:          99834 ave       99834 max       99834 min
Histogram: 1 0 0 0 0 0 0 0 0 0

Total # of neighbors = 99834
Ave neighs/atom = 65.080834
Neighbor list builds = 0
Dangerous builds = 0
variable count equal $i
variable count equal 15
print "$(v_strain:%.5f),$(v_stress:%.5f)" append stress-fracture.csv screen no
write_dump all custom fracture.dump id type x y z v_syy modify append yes
next i
jump SELF loop
displace_atoms gtop move 0  ${delta} 0 units box
displace_atoms gtop move 0  0.06 0 units box
Displacing atoms ...
displace_atoms gbot move 0 -${delta} 0 units box
displace_atoms gbot move 0 -0.06 0 units box
Displacing atoms ...
minimize 1.0e-10 1.0e-10 500 5000
Last active /omp style is pair_style eam/fs/omp
Per MPI rank memory allocation (min/avg/max) = 12.44 | 12.44 | 12.44 Mbytes
   Step         PotEng           Ly            Pyy      
       539  -6233.5282      80.447611     -68611.297    
       550  -6233.9928      80.447611     -69371.217    
       567  -6234.0101      80.447611     -69278.173    
Loop time of 0.0147038 on 8 procs for 28 steps with 1534 atoms

763.7% CPU use with 1 MPI tasks x 8 OpenMP threads

Minimization stats:
  Stopping criterion = energy tolerance
  Energy initial, next-to-last, final = 
     -6233.52823120493  -6234.01009409111  -6234.01009452052
  Force two-norm initial, final = 1.7710045 0.0018229541
  Force max component initial, final = 0.24001006 0.00019650836
  Final line search alpha, max atom move = 1 0.00019650836
  Iterations, force evaluations = 28 56

MPI task timing breakdown:
Section |  min time  |  avg time  |  max time  |%varavg| %total
---------------------------------------------------------------
Pair    | 0.012459   | 0.012459   | 0.012459   |   0.0 | 84.73
Neigh   | 0          | 0          | 0          |   0.0 |  0.00
Comm    | 0.00084974 | 0.00084974 | 0.00084974 |   0.0 |  5.78
Output  | 9.298e-06  | 9.298e-06  | 9.298e-06  |   0.0 |  0.06
Modify  | 0.00060874 | 0.00060874 | 0.00060874 |   0.0 |  4.14
Other   |            | 0.0007769  |            |       |  5.28

Nlocal:           1534 ave        1534 max        1534 min
Histogram: 1 0 0 0 0 0 0 0 0 0
Nghost:           4953 ave        4953 max        4953 min
Histogram: 1 0 0 0 0 0 0 0 0 0
Neighs:          99825 ave       99825 max       99825 min
Histogram: 1 0 0 0 0 0 0 0 0 0

Total # of neighbors = 99825
Ave neighs/atom = 65.074967
Neighbor list builds = 0
Dangerous builds = 0
variable count equal $i
variable count equal 16
print "$(v_strain:%.5f),$(v_stress:%.5f)" append stress-fracture.csv screen no
write_dump all custom fracture.dump id type x y z v_syy modify append yes
next i
jump SELF loop
displace_atoms gtop move 0  ${delta} 0 units box
displace_atoms gtop move 0  0.06 0 units box
Displacing atoms ...
displace_atoms gbot move 0 -${delta} 0 units box
displace_atoms gbot move 0 -0.06 0 units box
Displacing atoms ...
minimize 1.0e-10 1.0e-10 500 5000
Last active /omp style is pair_style eam/fs/omp
Per MPI rank memory allocation (min/avg/max) = 12.44 | 12.44 | 12.44 Mbytes
   Step         PotEng           Ly            Pyy      
       567  -6232.1654      80.567611     -72016.983    
       595  -6232.6299      80.567611     -72685.346    
Loop time of 0.0139956 on 8 procs for 28 steps with 1534 atoms

790.6% CPU use with 1 MPI tasks x 8 OpenMP threads

Minimization stats:
  Stopping criterion = energy tolerance
  Energy initial, next-to-last, final = 
     -6232.16535652149  -6232.62992589005  -6232.62992630373
  Force two-norm initial, final = 1.7246944 0.0017232467
  Force max component initial, final = 0.2359479 0.00014882146
  Final line search alpha, max atom move = 1 0.00014882146
  Iterations, force evaluations = 28 56

MPI task timing breakdown:
Section |  min time  |  avg time  |  max time  |%varavg| %total
---------------------------------------------------------------
Pair    | 0.011735   | 0.011735   | 0.011735   |   0.0 | 83.85
Neigh   | 0          | 0          | 0          |   0.0 |  0.00
Comm    | 0.00086302 | 0.00086302 | 0.00086302 |   0.0 |  6.17
Output  | 0          | 0          | 0          |   0.0 |  0.00
Modify  | 0.00061323 | 0.00061323 | 0.00061323 |   0.0 |  4.38
Other   |            | 0.0007845  |            |       |  5.61

Nlocal:           1534 ave        1534 max        1534 min
Histogram: 1 0 0 0 0 0 0 0 0 0
Nghost:           4953 ave        4953 max        4953 min
Histogram: 1 0 0 0 0 0 0 0 0 0
Neighs:          99820 ave       99820 max       99820 min
Histogram: 1 0 0 0 0 0 0 0 0 0

Total # of neighbors = 99820
Ave neighs/atom = 65.071708
Neighbor list builds = 0
Dangerous builds = 0
variable count equal $i
variable count equal 17
print "$(v_strain:%.5f),$(v_stress:%.5f)" append stress-fracture.csv screen no
write_dump all custom fracture.dump id type x y z v_syy modify append yes
next i
jump SELF loop
displace_atoms gtop move 0  ${delta} 0 units box
displace_atoms gtop move 0  0.06 0 units box
Displacing atoms ...
displace_atoms gbot move 0 -${delta} 0 units box
displace_atoms gbot move 0 -0.06 0 units box
Displacing atoms ...
minimize 1.0e-10 1.0e-10 500 5000
Last active /omp style is pair_style eam/fs/omp
Per MPI rank memory allocation (min/avg/max) = 12.44 | 12.44 | 12.44 Mbytes
   Step         PotEng           Ly            Pyy      
       595  -6230.7377      80.687611     -75290.393    
       600  -6231.1287      80.687611     -75906.697    
       622  -6231.1852      80.687611     -75950.468    
Loop time of 0.012758 on 8 procs for 27 steps with 1534 atoms

810.8% CPU use with 1 MPI tasks x 8 OpenMP threads

Minimization stats:
  Stopping criterion = energy tolerance
  Energy initial, next-to-last, final = 
     -6230.73768965524  -6231.18519645073  -6231.18519697989
  Force two-norm initial, final = 1.6801895 0.0022251462
  Force max component initial, final = 0.23188495 0.00018143394
  Final line search alpha, max atom move = 1 0.00018143394
  Iterations, force evaluations = 27 54

MPI task timing breakdown:
Section |  min time  |  avg time  |  max time  |%varavg| %total
---------------------------------------------------------------
Pair    | 0.010614   | 0.010614   | 0.010614   |   0.0 | 83.20
Neigh   | 0          | 0          | 0          |   0.0 |  0.00
Comm    | 0.0008129  | 0.0008129  | 0.0008129  |   0.0 |  6.37
Output  | 7.535e-06  | 7.535e-06  | 7.535e-06  |   0.0 |  0.06
Modify  | 0.00058855 | 0.00058855 | 0.00058855 |   0.0 |  4.61
Other   |            | 0.000735   |            |       |  5.76

Nlocal:           1534 ave        1534 max        1534 min
Histogram: 1 0 0 0 0 0 0 0 0 0
Nghost:           4953 ave        4953 max        4953 min
Histogram: 1 0 0 0 0 0 0 0 0 0
Neighs:          99808 ave       99808 max       99808 min
Histogram: 1 0 0 0 0 0 0 0 0 0

Total # of neighbors = 99808
Ave neighs/atom = 65.063885
Neighbor list builds = 0
Dangerous builds = 0
variable count equal $i
variable count equal 18
print "$(v_strain:%.5f),$(v_stress:%.5f)" append stress-fracture.csv screen no
write_dump all custom fracture.dump id type x y z v_syy modify append yes
next i
jump SELF loop
displace_atoms gtop move 0  ${delta} 0 units box
displace_atoms gtop move 0  0.06 0 units box
Displacing atoms ...
displace_atoms gbot move 0 -${delta} 0 units box
displace_atoms gbot move 0 -0.06 0 units box
Displacing atoms ...
minimize 1.0e-10 1.0e-10 500 5000
Last active /omp style is pair_style eam/fs/omp
Per MPI rank memory allocation (min/avg/max) = 12.44 | 12.44 | 12.44 Mbytes
   Step         PotEng           Ly            Pyy      
       622  -6229.2483      80.807611     -78429.559    
       648  -6229.6787      80.807611     -79071.998    
Loop time of 0.012723 on 8 procs for 26 steps with 1534 atoms

812.6% CPU use with 1 MPI tasks x 8 OpenMP threads

Minimization stats:
  Stopping criterion = energy tolerance
  Energy initial, next-to-last, final = 
     -6229.24829243489  -6229.67870904048  -6229.67870952803
  Force two-norm initial, final = 1.6373613 0.002190686
  Force max component initial, final = 0.22784052 0.00015342472
  Final line search alpha, max atom move = 1 0.00015342472
  Iterations, force evaluations = 26 52

MPI task timing breakdown:
Section |  min time  |  avg time  |  max time  |%varavg| %total
---------------------------------------------------------------
Pair    | 0.010644   | 0.010644   | 0.010644   |   0.0 | 83.66
Neigh   | 0          | 0          | 0          |   0.0 |  0.00
Comm    | 0.00079099 | 0.00079099 | 0.00079099 |   0.0 |  6.22
Output  | 0          | 0          | 0          |   0.0 |  0.00
Modify  | 0.00056897 | 0.00056897 | 0.00056897 |   0.0 |  4.47
Other   |            | 0.0007194  |            |       |  5.65

Nlocal:           1534 ave        1534 max        1534 min
Histogram: 1 0 0 0 0 0 0 0 0 0
Nghost:           4953 ave        4953 max        4953 min
Histogram: 1 0 0 0 0 0 0 0 0 0
Neighs:          99808 ave       99808 max       99808 min
Histogram: 1 0 0 0 0 0 0 0 0 0

Total # of neighbors = 99808
Ave neighs/atom = 65.063885
Neighbor list builds = 0
Dangerous builds = 0
variable count equal $i
variable count equal 19
print "$(v_strain:%.5f),$(v_stress:%.5f)" append stress-fracture.csv screen no
write_dump all custom fracture.dump id type x y z v_syy modify append yes
next i
jump SELF loop
displace_atoms gtop move 0  ${delta} 0 units box
displace_atoms gtop move 0  0.06 0 units box
Displacing atoms ...
displace_atoms gbot move 0 -${delta} 0 units box
displace_atoms gbot move 0 -0.06 0 units box
Displacing atoms ...
minimize 1.0e-10 1.0e-10 500 5000
Last active /omp style is pair_style eam/fs/omp
Per MPI rank memory allocation (min/avg/max) = 12.44 | 12.44 | 12.44 Mbytes
   Step         PotEng           Ly            Pyy      
       648  -6227.6991      80.927611     -81431.389    
       650  -6227.9878      80.927611     -81744.619    
       675  -6228.1133      80.927611     -82046.264    
Loop time of 0.0125989 on 8 procs for 27 steps with 1534 atoms

756.6% CPU use with 1 MPI tasks x 8 OpenMP threads

Minimization stats:
  Stopping criterion = energy tolerance
  Energy initial, next-to-last, final = 
     -6227.69913297533  -6228.11332423888  -6228.11332468626
  Force two-norm initial, final = 1.5961081 0.0018782334
  Force max component initial, final = 0.22381871 0.00013054997
  Final line search alpha, max atom move = 1 0.00013054997
  Iterations, force evaluations = 27 54

MPI task timing breakdown:
Section |  min time  |  avg time  |  max time  |%varavg| %total
---------------------------------------------------------------
Pair    | 0.010478   | 0.010478   | 0.010478   |   0.0 | 83.16
Neigh   | 0          | 0          | 0          |   0.0 |  0.00
Comm    | 0.00080207 | 0.00080207 | 0.00080207 |   0.0 |  6.37
Output  | 7.684e-06  | 7.684e-06  | 7.684e-06  |   0.0 |  0.06
Modify  | 0.00058332 | 0.00058332 | 0.00058332 |   0.0 |  4.63
Other   |            | 0.000728   |            |       |  5.78

Nlocal:           1534 ave        1534 max        1534 min
Histogram: 1 0 0 0 0 0 0 0 0 0
Nghost:           4953 ave        4953 max        4953 min
Histogram: 1 0 0 0 0 0 0 0 0 0
Neighs:          99804 ave       99804 max       99804 min
Histogram: 1 0 0 0 0 0 0 0 0 0

Total # of neighbors = 99804
Ave neighs/atom = 65.061278
Neighbor list builds = 0
Dangerous builds = 0
variable count equal $i
variable count equal 20
print "$(v_strain:%.5f),$(v_stress:%.5f)" append stress-fracture.csv screen no
write_dump all custom fracture.dump id type x y z v_syy modify append yes
next i
jump SELF loop
displace_atoms gtop move 0  ${delta} 0 units box
displace_atoms gtop move 0  0.06 0 units box
Displacing atoms ...
displace_atoms gbot move 0 -${delta} 0 units box
displace_atoms gbot move 0 -0.06 0 units box
Displacing atoms ...
minimize 1.0e-10 1.0e-10 500 5000
Last active /omp style is pair_style eam/fs/omp
Per MPI rank memory allocation (min/avg/max) = 12.44 | 12.44 | 12.44 Mbytes
   Step         PotEng           Ly            Pyy      
       675  -6226.093       81.047611     -84292.387    
       700  -6226.492       81.047611     -84871.291    
       703  -6226.492       81.047611     -84871.054    
Loop time of 0.0124187 on 8 procs for 28 steps with 1534 atoms

830.5% CPU use with 1 MPI tasks x 8 OpenMP threads

Minimization stats:
  Stopping criterion = energy tolerance
  Energy initial, next-to-last, final = 
      -6226.0929524268  -6226.49195665354  -6226.49195724564
  Force two-norm initial, final = 1.5559997 0.0023026882
  Force max component initial, final = 0.21979472 0.00018601482
  Final line search alpha, max atom move = 1 0.00018601482
  Iterations, force evaluations = 28 56

MPI task timing breakdown:
Section |  min time  |  avg time  |  max time  |%varavg| %total
---------------------------------------------------------------
Pair    | 0.010228   | 0.010228   | 0.010228   |   0.0 | 82.36
Neigh   | 0          | 0          | 0          |   0.0 |  0.00
Comm    | 0.00083108 | 0.00083108 | 0.00083108 |   0.0 |  6.69
Output  | 7.805e-06  | 7.805e-06  | 7.805e-06  |   0.0 |  0.06
Modify  | 0.00061036 | 0.00061036 | 0.00061036 |   0.0 |  4.91
Other   |            | 0.0007418  |            |       |  5.97

Nlocal:           1534 ave        1534 max        1534 min
Histogram: 1 0 0 0 0 0 0 0 0 0
Nghost:           4953 ave        4953 max        4953 min
Histogram: 1 0 0 0 0 0 0 0 0 0
Neighs:          99786 ave       99786 max       99786 min
Histogram: 1 0 0 0 0 0 0 0 0 0

Total # of neighbors = 99786
Ave neighs/atom = 65.049544
Neighbor list builds = 0
Dangerous builds = 0
variable count equal $i
variable count equal 21
print "$(v_strain:%.5f),$(v_stress:%.5f)" append stress-fracture.csv screen no
write_dump all custom fracture.dump id type x y z v_syy modify append yes
next i
jump SELF loop
displace_atoms gtop move 0  ${delta} 0 units box
displace_atoms gtop move 0  0.06 0 units box
Displacing atoms ...
displace_atoms gbot move 0 -${delta} 0 units box
displace_atoms gbot move 0 -0.06 0 units box
Displacing atoms ...
minimize 1.0e-10 1.0e-10 500 5000
Last active /omp style is pair_style eam/fs/omp
Per MPI rank memory allocation (min/avg/max) = 12.44 | 12.44 | 12.44 Mbytes
   Step         PotEng           Ly            Pyy      
       703  -6224.4328      81.167611     -87012.118    
       739  -6224.8176      81.167611     -87542.97     
Loop time of 0.0158238 on 8 procs for 36 steps with 1534 atoms

805.6% CPU use with 1 MPI tasks x 8 OpenMP threads

Minimization stats:
  Stopping criterion = energy tolerance
  Energy initial, next-to-last, final = 
       -6224.432849607  -6224.81758629242  -6224.81758671141
  Force two-norm initial, final = 1.5173558 0.0017361413
  Force max component initial, final = 0.21579206 0.00011198168
  Final line search alpha, max atom move = 1 0.00011198168
  Iterations, force evaluations = 36 72

MPI task timing breakdown:
Section |  min time  |  avg time  |  max time  |%varavg| %total
---------------------------------------------------------------
Pair    | 0.013056   | 0.013056   | 0.013056   |   0.0 | 82.51
Neigh   | 0          | 0          | 0          |   0.0 |  0.00
Comm    | 0.0010433  | 0.0010433  | 0.0010433  |   0.0 |  6.59
Output  | 0          | 0          | 0          |   0.0 |  0.00
Modify  | 0.00077462 | 0.00077462 | 0.00077462 |   0.0 |  4.90
Other   |            | 0.00095    |            |       |  6.00

Nlocal:           1534 ave        1534 max        1534 min
Histogram: 1 0 0 0 0 0 0 0 0 0
Nghost:           4953 ave        4953 max        4953 min
Histogram: 1 0 0 0 0 0 0 0 0 0
Neighs:          99748 ave       99748 max       99748 min
Histogram: 1 0 0 0 0 0 0 0 0 0

Total # of neighbors = 99748
Ave neighs/atom = 65.024772
Neighbor list builds = 0
Dangerous builds = 0
variable count equal $i
variable count equal 22
print "$(v_strain:%.5f),$(v_stress:%.5f)" append stress-fracture.csv screen no
write_dump all custom fracture.dump id type x y z v_syy modify append yes
next i
jump SELF loop
displace_atoms gtop move 0  ${delta} 0 units box
displace_atoms gtop move 0  0.06 0 units box
Displacing atoms ...
displace_atoms gbot move 0 -${delta} 0 units box
displace_atoms gbot move 0 -0.06 0 units box
Displacing atoms ...
minimize 1.0e-10 1.0e-10 500 5000
Last active /omp style is pair_style eam/fs/omp
Per MPI rank memory allocation (min/avg/max) = 12.44 | 12.44 | 12.44 Mbytes
   Step         PotEng           Ly            Pyy      
       739  -6222.721       81.287611     -89588.808    
       750  -6223.0763      81.287611     -89996.61     
       775  -6223.0932      81.287611     -90058.24     
Loop time of 0.0180183 on 8 procs for 36 steps with 1534 atoms

795.1% CPU use with 1 MPI tasks x 8 OpenMP threads

Minimization stats:
  Stopping criterion = energy tolerance
  Energy initial, next-to-last, final = 
     -6222.72101034495  -6223.09323010392  -6223.09323067361
  Force two-norm initial, final = 1.480784 0.0020923387
  Force max component initial, final = 0.21174267 0.00014475023
  Final line search alpha, max atom move = 1 0.00014475023
  Iterations, force evaluations = 36 72

MPI task timing breakdown:
Section |  min time  |  avg time  |  max time  |%varavg| %total
---------------------------------------------------------------
Pair    | 0.014889   | 0.014889   | 0.014889   |   0.0 | 82.63
Neigh   | 0          | 0          | 0          |   0.0 |  0.00
Comm    | 0.0011652  | 0.0011652  | 0.0011652  |   0.0 |  6.47
Output  | 6.282e-06  | 6.282e-06  | 6.282e-06  |   0.0 |  0.03
Modify  | 0.00082093 | 0.00082093 | 0.00082093 |   0.0 |  4.56
Other   |            | 0.001137   |            |       |  6.31

Nlocal:           1534 ave        1534 max        1534 min
Histogram: 1 0 0 0 0 0 0 0 0 0
Nghost:           4953 ave        4953 max        4953 min
Histogram: 1 0 0 0 0 0 0 0 0 0
Neighs:          99740 ave       99740 max       99740 min
Histogram: 1 0 0 0 0 0 0 0 0 0

Total # of neighbors = 99740
Ave neighs/atom = 65.019557
Neighbor list builds = 0
Dangerous builds = 0
variable count equal $i
variable count equal 23
print "$(v_strain:%.5f),$(v_stress:%.5f)" append stress-fracture.csv screen no
write_dump all custom fracture.dump id type x y z v_syy modify append yes
next i
jump SELF loop
displace_atoms gtop move 0  ${delta} 0 units box
displace_atoms gtop move 0  0.06 0 units box
Displacing atoms ...
displace_atoms gbot move 0 -${delta} 0 units box
displace_atoms gbot move 0 -0.06 0 units box
Displacing atoms ...
minimize 1.0e-10 1.0e-10 500 5000
Last active /omp style is pair_style eam/fs/omp
Per MPI rank memory allocation (min/avg/max) = 12.44 | 12.44 | 12.44 Mbytes
   Step         PotEng           Ly            Pyy      
       775  -6220.9616      81.407611     -92022.932    
       800  -6221.322       81.407611     -92414.729    
       810  -6221.322       81.407611     -92413.76     
Loop time of 0.016434 on 8 procs for 35 steps with 1534 atoms

821.7% CPU use with 1 MPI tasks x 8 OpenMP threads

Minimization stats:
  Stopping criterion = energy tolerance
  Energy initial, next-to-last, final = 
     -6220.96155305785  -6221.32198654723  -6221.32198703742
  Force two-norm initial, final = 1.4470295 0.002311574
  Force max component initial, final = 0.20782426 0.0001784183
  Final line search alpha, max atom move = 1 0.0001784183
  Iterations, force evaluations = 35 70

MPI task timing breakdown:
Section |  min time  |  avg time  |  max time  |%varavg| %total
---------------------------------------------------------------
Pair    | 0.013691   | 0.013691   | 0.013691   |   0.0 | 83.31
Neigh   | 0          | 0          | 0          |   0.0 |  0.00
Comm    | 0.0010313  | 0.0010313  | 0.0010313  |   0.0 |  6.28
Output  | 7.514e-06  | 7.514e-06  | 7.514e-06  |   0.0 |  0.05
Modify  | 0.00075919 | 0.00075919 | 0.00075919 |   0.0 |  4.62
Other   |            | 0.0009453  |            |       |  5.75

Nlocal:           1534 ave        1534 max        1534 min
Histogram: 1 0 0 0 0 0 0 0 0 0
Nghost:           4953 ave        4953 max        4953 min
Histogram: 1 0 0 0 0 0 0 0 0 0
Neighs:          99636 ave       99636 max       99636 min
Histogram: 1 0 0 0 0 0 0 0 0 0

Total # of neighbors = 99636
Ave neighs/atom = 64.95176
Neighbor list builds = 0
Dangerous builds = 0
variable count equal $i
variable count equal 24
print "$(v_strain:%.5f),$(v_stress:%.5f)" append stress-fracture.csv screen no
write_dump all custom fracture.dump id type x y z v_syy modify append yes
next i
jump SELF loop
displace_atoms gtop move 0  ${delta} 0 units box
displace_atoms gtop move 0  0.06 0 units box
Displacing atoms ...
displace_atoms gbot move 0 -${delta} 0 units box
displace_atoms gbot move 0 -0.06 0 units box
Displacing atoms ...
minimize 1.0e-10 1.0e-10 500 5000
Last active /omp style is pair_style eam/fs/omp
Per MPI rank memory allocation (min/avg/max) = 12.44 | 12.44 | 12.44 Mbytes
   Step         PotEng           Ly            Pyy      
       810  -6219.1568      81.527611     -94311.291    
       848  -6219.507       81.527611     -94607.443    
Loop time of 0.0163903 on 8 procs for 38 steps with 1534 atoms

823.8% CPU use with 1 MPI tasks x 8 OpenMP threads

Minimization stats:
  Stopping criterion = energy tolerance
  Energy initial, next-to-last, final = 
     -6219.15675876276  -6219.50700948316  -6219.50700999797
  Force two-norm initial, final = 1.4166586 0.0019994308
  Force max component initial, final = 0.20415303 0.00015528842
  Final line search alpha, max atom move = 1 0.00015528842
  Iterations, force evaluations = 38 76

MPI task timing breakdown:
Section |  min time  |  avg time  |  max time  |%varavg| %total
---------------------------------------------------------------
Pair    | 0.013441   | 0.013441   | 0.013441   |   0.0 | 82.00
Neigh   | 0          | 0          | 0          |   0.0 |  0.00
Comm    | 0.0011148  | 0.0011148  | 0.0011148  |   0.0 |  6.80
Output  | 0          | 0          | 0          |   0.0 |  0.00
Modify  | 0.00082691 | 0.00082691 | 0.00082691 |   0.0 |  5.05
Other   |            | 0.001008   |            |       |  6.15

Nlocal:           1534 ave        1534 max        1534 min
Histogram: 1 0 0 0 0 0 0 0 0 0
Nghost:           4953 ave        4953 max        4953 min
Histogram: 1 0 0 0 0 0 0 0 0 0
Neighs:          99628 ave       99628 max       99628 min
Histogram: 1 0 0 0 0 0 0 0 0 0

Total # of neighbors = 99628
Ave neighs/atom = 64.946545
Neighbor list builds = 0
Dangerous builds = 0
variable count equal $i
variable count equal 25
print "$(v_strain:%.5f),$(v_stress:%.5f)" append stress-fracture.csv screen no
write_dump all custom fracture.dump id type x y z v_syy modify append yes
next i
jump SELF loop
displace_atoms gtop move 0  ${delta} 0 units box
displace_atoms gtop move 0  0.06 0 units box
Displacing atoms ...
displace_atoms gbot move 0 -${delta} 0 units box
displace_atoms gbot move 0 -0.06 0 units box
Displacing atoms ...
minimize 1.0e-10 1.0e-10 500 5000
Last active /omp style is pair_style eam/fs/omp
Per MPI rank memory allocation (min/avg/max) = 12.44 | 12.44 | 12.44 Mbytes
   Step         PotEng           Ly            Pyy      
       848  -6217.3089      81.647611     -96451.064    
       850  -6217.56        81.647611     -96373.477    
       881  -6217.6515      81.647611     -96638.423    
Loop time of 0.0174864 on 8 procs for 33 steps with 1534 atoms

817.5% CPU use with 1 MPI tasks x 8 OpenMP threads

Minimization stats:
  Stopping criterion = energy tolerance
  Energy initial, next-to-last, final = 
     -6217.30889010334  -6217.65147594408  -6217.65147645743
  Force two-norm initial, final = 1.3892206 0.0024644431
  Force max component initial, final = 0.20063277 0.00021698344
  Final line search alpha, max atom move = 1 0.00021698344
  Iterations, force evaluations = 33 66

MPI task timing breakdown:
Section |  min time  |  avg time  |  max time  |%varavg| %total
---------------------------------------------------------------
Pair    | 0.014782   | 0.014782   | 0.014782   |   0.0 | 84.53
Neigh   | 0          | 0          | 0          |   0.0 |  0.00
Comm    | 0.0010272  | 0.0010272  | 0.0010272  |   0.0 |  5.87
Output  | 7.284e-06  | 7.284e-06  | 7.284e-06  |   0.0 |  0.04
Modify  | 0.00072428 | 0.00072428 | 0.00072428 |   0.0 |  4.14
Other   |            | 0.0009461  |            |       |  5.41

Nlocal:           1534 ave        1534 max        1534 min
Histogram: 1 0 0 0 0 0 0 0 0 0
Nghost:           4953 ave        4953 max        4953 min
Histogram: 1 0 0 0 0 0 0 0 0 0
Neighs:          99622 ave       99622 max       99622 min
Histogram: 1 0 0 0 0 0 0 0 0 0

Total # of neighbors = 99622
Ave neighs/atom = 64.942634
Neighbor list builds = 0
Dangerous builds = 0
variable count equal $i
variable count equal 26
print "$(v_strain:%.5f),$(v_stress:%.5f)" append stress-fracture.csv screen no
write_dump all custom fracture.dump id type x y z v_syy modify append yes
next i
jump SELF loop
displace_atoms gtop move 0  ${delta} 0 units box
displace_atoms gtop move 0  0.06 0 units box
Displacing atoms ...
displace_atoms gbot move 0 -${delta} 0 units box
displace_atoms gbot move 0 -0.06 0 units box
Displacing atoms ...
minimize 1.0e-10 1.0e-10 500 5000
Last active /omp style is pair_style eam/fs/omp
Per MPI rank memory allocation (min/avg/max) = 12.44 | 12.44 | 12.44 Mbytes
   Step         PotEng           Ly            Pyy      
       881  -6215.4221      81.767611     -98443.095    
       900  -6215.7545      81.767611     -98432.178    
       918  -6215.7586      81.767611     -98508.988    
Loop time of 0.0167605 on 8 procs for 37 steps with 1534 atoms

807.8% CPU use with 1 MPI tasks x 8 OpenMP threads

Minimization stats:
  Stopping criterion = energy tolerance
  Energy initial, next-to-last, final = 
      -6215.4221465154  -6215.75855075424  -6215.75855115081
  Force two-norm initial, final = 1.3657396 0.0017578012
  Force max component initial, final = 0.1974884 0.00013315267
  Final line search alpha, max atom move = 1 0.00013315267
  Iterations, force evaluations = 37 74

MPI task timing breakdown:
Section |  min time  |  avg time  |  max time  |%varavg| %total
---------------------------------------------------------------
Pair    | 0.01388    | 0.01388    | 0.01388    |   0.0 | 82.81
Neigh   | 0          | 0          | 0          |   0.0 |  0.00
Comm    | 0.0010769  | 0.0010769  | 0.0010769  |   0.0 |  6.43
Output  | 1.052e-05  | 1.052e-05  | 1.052e-05  |   0.0 |  0.06
Modify  | 0.00081456 | 0.00081456 | 0.00081456 |   0.0 |  4.86
Other   |            | 0.0009789  |            |       |  5.84

Nlocal:           1534 ave        1534 max        1534 min
Histogram: 1 0 0 0 0 0 0 0 0 0
Nghost:           4953 ave        4953 max        4953 min
Histogram: 1 0 0 0 0 0 0 0 0 0
Neighs:          99508 ave       99508 max       99508 min
Histogram: 1 0 0 0 0 0 0 0 0 0

Total # of neighbors = 99508
Ave neighs/atom = 64.868318
Neighbor list builds = 0
Dangerous builds = 0
variable count equal $i
variable count equal 27
print "$(v_strain:%.5f),$(v_stress:%.5f)" append stress-fracture.csv screen no
write_dump all custom fracture.dump id type x y z v_syy modify append yes
next i
jump SELF loop
displace_atoms gtop move 0  ${delta} 0 units box
displace_atoms gtop move 0  0.06 0 units box
Displacing atoms ...
displace_atoms gbot move 0 -${delta} 0 units box
displace_atoms gbot move 0 -0.06 0 units box
Displacing atoms ...
minimize 1.0e-10 1.0e-10 500 5000
Last active /omp style is pair_style eam/fs/omp
Per MPI rank memory allocation (min/avg/max) = 12.44 | 12.44 | 12.44 Mbytes
   Step         PotEng           Ly            Pyy      
       918  -6213.4985      81.887611     -100282.83    
       950  -6213.8313      81.887611     -100219.04    
       953  -6213.8313      81.887611     -100220.24    
Loop time of 0.014773 on 8 procs for 35 steps with 1534 atoms

801.9% CPU use with 1 MPI tasks x 8 OpenMP threads

Minimization stats:
  Stopping criterion = energy tolerance
  Energy initial, next-to-last, final = 
     -6213.49847836317  -6213.83127130494  -6213.83127184051
  Force two-norm initial, final = 1.3447322 0.0023194963
  Force max component initial, final = 0.19455871 0.00014799306
  Final line search alpha, max atom move = 1 0.00014799306
  Iterations, force evaluations = 35 70

MPI task timing breakdown:
Section |  min time  |  avg time  |  max time  |%varavg| %total
---------------------------------------------------------------
Pair    | 0.012054   | 0.012054   | 0.012054   |   0.0 | 81.60
Neigh   | 0          | 0          | 0          |   0.0 |  0.00
Comm    | 0.0010278  | 0.0010278  | 0.0010278  |   0.0 |  6.96
Output  | 6.533e-06  | 6.533e-06  | 6.533e-06  |   0.0 |  0.04
Modify  | 0.00076458 | 0.00076458 | 0.00076458 |   0.0 |  5.18
Other   |            | 0.0009199  |            |       |  6.23

Nlocal:           1534 ave        1534 max        1534 min
Histogram: 1 0 0 0 0 0 0 0 0 0
Nghost:           4953 ave        4953 max        4953 min
Histogram: 1 0 0 0 0 0 0 0 0 0
Neighs:          99498 ave       99498 max       99498 min
Histogram: 1 0 0 0 0 0 0 0 0 0

Total # of neighbors = 99498
Ave neighs/atom = 64.861799
Neighbor list builds = 0
Dangerous builds = 0
variable count equal $i
variable count equal 28
print "$(v_strain:%.5f),$(v_stress:%.5f)" append stress-fracture.csv screen no
write_dump all custom fracture.dump id type x y z v_syy modify append yes
next i
jump SELF loop
displace_atoms gtop move 0  ${delta} 0 units box
displace_atoms gtop move 0  0.06 0 units box
Displacing atoms ...
displace_atoms gbot move 0 -${delta} 0 units box
displace_atoms gbot move 0 -0.06 0 units box
Displacing atoms ...
minimize 1.0e-10 1.0e-10 500 5000
Last active /omp style is pair_style eam/fs/omp
Per MPI rank memory allocation (min/avg/max) = 12.44 | 12.44 | 12.44 Mbytes
   Step         PotEng           Ly            Pyy      
       953  -6211.5433      82.007611     -101970.31    
       990  -6211.8728      82.007611     -101769.28    
Loop time of 0.0154454 on 8 procs for 37 steps with 1534 atoms

777.9% CPU use with 1 MPI tasks x 8 OpenMP threads

Minimization stats:
  Stopping criterion = energy tolerance
  Energy initial, next-to-last, final = 
     -6211.54328912787  -6211.87276934233  -6211.87276980752
  Force two-norm initial, final = 1.3274243 0.002350345
  Force max component initial, final = 0.19199801 0.0001585808
  Final line search alpha, max atom move = 1 0.0001585808
  Iterations, force evaluations = 37 74

MPI task timing breakdown:
Section |  min time  |  avg time  |  max time  |%varavg| %total
---------------------------------------------------------------
Pair    | 0.012576   | 0.012576   | 0.012576   |   0.0 | 81.42
Neigh   | 0          | 0          | 0          |   0.0 |  0.00
Comm    | 0.0010785  | 0.0010785  | 0.0010785  |   0.0 |  6.98
Output  | 0          | 0          | 0          |   0.0 |  0.00
Modify  | 0.00080584 | 0.00080584 | 0.00080584 |   0.0 |  5.22
Other   |            | 0.000985   |            |       |  6.38

Nlocal:           1534 ave        1534 max        1534 min
Histogram: 1 0 0 0 0 0 0 0 0 0
Nghost:           4953 ave        4953 max        4953 min
Histogram: 1 0 0 0 0 0 0 0 0 0
Neighs:          99284 ave       99284 max       99284 min
Histogram: 1 0 0 0 0 0 0 0 0 0

Total # of neighbors = 99284
Ave neighs/atom = 64.722295
Neighbor list builds = 0
Dangerous builds = 0
variable count equal $i
variable count equal 29
print "$(v_strain:%.5f),$(v_stress:%.5f)" append stress-fracture.csv screen no
write_dump all custom fracture.dump id type x y z v_syy modify append yes
next i
jump SELF loop
displace_atoms gtop move 0  ${delta} 0 units box
displace_atoms gtop move 0  0.06 0 units box
Displacing atoms ...
displace_atoms gbot move 0 -${delta} 0 units box
displace_atoms gbot move 0 -0.06 0 units box
Displacing atoms ...
minimize 1.0e-10 1.0e-10 500 5000
Last active /omp style is pair_style eam/fs/omp
Per MPI rank memory allocation (min/avg/max) = 12.44 | 12.44 | 12.44 Mbytes
   Step         PotEng           Ly            Pyy      
       990  -6209.5597      82.127611     -103501.75    
      1000  -6209.8692      82.127611     -103055.79    
      1029  -6209.8863      82.127611     -103148.52    
Loop time of 0.0171756 on 8 procs for 39 steps with 1534 atoms

785.0% CPU use with 1 MPI tasks x 8 OpenMP threads

Minimization stats:
  Stopping criterion = energy tolerance
  Energy initial, next-to-last, final = 
     -6209.55974122051  -6209.88628098982  -6209.88628156936
  Force two-norm initial, final = 1.3136344 0.002603014
  Force max component initial, final = 0.18992425 0.00013458132
  Final line search alpha, max atom move = 1 0.00013458132
  Iterations, force evaluations = 39 78

MPI task timing breakdown:
Section |  min time  |  avg time  |  max time  |%varavg| %total
---------------------------------------------------------------
Pair    | 0.014098   | 0.014098   | 0.014098   |   0.0 | 82.08
Neigh   | 0          | 0          | 0          |   0.0 |  0.00
Comm    | 0.0011647  | 0.0011647  | 0.0011647  |   0.0 |  6.78
Output  | 5.961e-06  | 5.961e-06  | 5.961e-06  |   0.0 |  0.03
Modify  | 0.0008494  | 0.0008494  | 0.0008494  |   0.0 |  4.95
Other   |            | 0.001058   |            |       |  6.16

Nlocal:           1534 ave        1534 max        1534 min
Histogram: 1 0 0 0 0 0 0 0 0 0
Nghost:           4953 ave        4953 max        4953 min
Histogram: 1 0 0 0 0 0 0 0 0 0
Neighs:          99106 ave       99106 max       99106 min
Histogram: 1 0 0 0 0 0 0 0 0 0

Total # of neighbors = 99106
Ave neighs/atom = 64.606258
Neighbor list builds = 0
Dangerous builds = 0
variable count equal $i
variable count equal 30
print "$(v_strain:%.5f),$(v_stress:%.5f)" append stress-fracture.csv screen no
write_dump all custom fracture.dump id type x y z v_syy modify append yes
next i
jump SELF loop
displace_atoms gtop move 0  ${delta} 0 units box
displace_atoms gtop move 0  0.06 0 units box
Displacing atoms ...
displace_atoms gbot move 0 -${delta} 0 units box
displace_atoms gbot move 0 -0.06 0 units box
Displacing atoms ...
minimize 1.0e-10 1.0e-10 500 5000
Last active /omp style is pair_style eam/fs/omp
Per MPI rank memory allocation (min/avg/max) = 12.44 | 12.44 | 12.44 Mbytes
   Step         PotEng           Ly            Pyy      
      1029  -6207.5503      82.247611     -104868.64    
      1050  -6207.8715      82.247611     -104290.76    
      1068  -6207.8751      82.247611     -104374.72    
Loop time of 0.0206619 on 8 procs for 39 steps with 1534 atoms

807.1% CPU use with 1 MPI tasks x 8 OpenMP threads

Minimization stats:
  Stopping criterion = energy tolerance
  Energy initial, next-to-last, final = 
     -6207.55028602341  -6207.87508493228  -6207.87508540448
  Force two-norm initial, final = 1.3024497 0.0023572227
  Force max component initial, final = 0.18811636 0.00014378347
  Final line search alpha, max atom move = 1 0.00014378347
  Iterations, force evaluations = 39 78

MPI task timing breakdown:
Section |  min time  |  avg time  |  max time  |%varavg| %total
---------------------------------------------------------------
Pair    | 0.017206   | 0.017206   | 0.017206   |   0.0 | 83.27
Neigh   | 0          | 0          | 0          |   0.0 |  0.00
Comm    | 0.0012787  | 0.0012787  | 0.0012787  |   0.0 |  6.19
Output  | 6.4143e-05 | 6.4143e-05 | 6.4143e-05 |   0.0 |  0.31
Modify  | 0.00088765 | 0.00088765 | 0.00088765 |   0.0 |  4.30
Other   |            | 0.001226   |            |       |  5.93

Nlocal:           1534 ave        1534 max        1534 min
Histogram: 1 0 0 0 0 0 0 0 0 0
Nghost:           4953 ave        4953 max        4953 min
Histogram: 1 0 0 0 0 0 0 0 0 0
Neighs:          96648 ave       96648 max       96648 min
Histogram: 1 0 0 0 0 0 0 0 0 0

Total # of neighbors = 96648
Ave neighs/atom = 63.003911
Neighbor list builds = 0
Dangerous builds = 0
variable count equal $i
variable count equal 31
print "$(v_strain:%.5f),$(v_stress:%.5f)" append stress-fracture.csv screen no
write_dump all custom fracture.dump id type x y z v_syy modify append yes
next i
jump SELF loop
displace_atoms gtop move 0  ${delta} 0 units box
displace_atoms gtop move 0  0.06 0 units box
Displacing atoms ...
displace_atoms gbot move 0 -${delta} 0 units box
displace_atoms gbot move 0 -0.06 0 units box
Displacing atoms ...
minimize 1.0e-10 1.0e-10 500 5000
Last active /omp style is pair_style eam/fs/omp
Per MPI rank memory allocation (min/avg/max) = 12.44 | 12.44 | 12.44 Mbytes
   Step         PotEng           Ly            Pyy      
      1068  -6205.5179      82.367611     -106086.78    
      1100  -6205.8407      82.367611     -105595.72    
      1110  -6205.8407      82.367611     -105600.79    
Loop time of 0.0199034 on 8 procs for 42 steps with 1534 atoms

800.9% CPU use with 1 MPI tasks x 8 OpenMP threads

Minimization stats:
  Stopping criterion = energy tolerance
  Energy initial, next-to-last, final = 
     -6205.51788197268  -6205.84066438019  -6205.84066489311
  Force two-norm initial, final = 1.2928995 0.0021027241
  Force max component initial, final = 0.18651972 0.000157019
  Final line search alpha, max atom move = 1 0.000157019
  Iterations, force evaluations = 42 84

MPI task timing breakdown:
Section |  min time  |  avg time  |  max time  |%varavg| %total
---------------------------------------------------------------
Pair    | 0.016512   | 0.016512   | 0.016512   |   0.0 | 82.96
Neigh   | 0          | 0          | 0          |   0.0 |  0.00
Comm    | 0.0012864  | 0.0012864  | 0.0012864  |   0.0 |  6.46
Output  | 1.7924e-05 | 1.7924e-05 | 1.7924e-05 |   0.0 |  0.09
Modify  | 0.00092787 | 0.00092787 | 0.00092787 |   0.0 |  4.66
Other   |            | 0.001159   |            |       |  5.82

Nlocal:           1534 ave        1534 max        1534 min
Histogram: 1 0 0 0 0 0 0 0 0 0
Nghost:           4953 ave        4953 max        4953 min
Histogram: 1 0 0 0 0 0 0 0 0 0
Neighs:          96612 ave       96612 max       96612 min
Histogram: 1 0 0 0 0 0 0 0 0 0

Total # of neighbors = 96612
Ave neighs/atom = 62.980443
Neighbor list builds = 0
Dangerous builds = 0
variable count equal $i
variable count equal 32
print "$(v_strain:%.5f),$(v_stress:%.5f)" append stress-fracture.csv screen no
write_dump all custom fracture.dump id type x y z v_syy modify append yes
next i
jump SELF loop
displace_atoms gtop move 0  ${delta} 0 units box
displace_atoms gtop move 0  0.06 0 units box
Displacing atoms ...
displace_atoms gbot move 0 -${delta} 0 units box
displace_atoms gbot move 0 -0.06 0 units box
Displacing atoms ...
minimize 1.0e-10 1.0e-10 500 5000
Last active /omp style is pair_style eam/fs/omp
Per MPI rank memory allocation (min/avg/max) = 12.44 | 12.44 | 12.44 Mbytes
   Step         PotEng           Ly            Pyy      
      1110  -6203.462       82.487611     -107307.48    
      1150  -6203.7827      82.487611     -106846.39    
      1152  -6203.7827      82.487611     -106846.79    
Loop time of 0.0182277 on 8 procs for 42 steps with 1534 atoms

789.0% CPU use with 1 MPI tasks x 8 OpenMP threads

Minimization stats:
  Stopping criterion = energy tolerance
[...]
Loop time of 0.0172419 on 8 procs for 36 steps with 1534 atoms

787.0% CPU use with 1 MPI tasks x 8 OpenMP threads

Minimization stats:
  Stopping criterion = energy tolerance
  Energy initial, next-to-last, final = 
     -6096.68996626697  -6097.05224540556  -6097.05224593412
  Force two-norm initial, final = 1.4313121 0.0020911445
  Force max component initial, final = 0.19536895 0.00030954279
  Final line search alpha, max atom move = 1 0.00030954279
  Iterations, force evaluations = 36 72

MPI task timing breakdown:
Section |  min time  |  avg time  |  max time  |%varavg| %total
---------------------------------------------------------------
Pair    | 0.01409    | 0.01409    | 0.01409    |   0.0 | 81.72
Neigh   | 0          | 0          | 0          |   0.0 |  0.00
Comm    | 0.0012245  | 0.0012245  | 0.0012245  |   0.0 |  7.10
Output  | 5.992e-06  | 5.992e-06  | 5.992e-06  |   0.0 |  0.03
Modify  | 0.00086725 | 0.00086725 | 0.00086725 |   0.0 |  5.03
Other   |            | 0.001054   |            |       |  6.11

Nlocal:           1534 ave        1534 max        1534 min
Histogram: 1 0 0 0 0 0 0 0 0 0
Nghost:           4951 ave        4951 max        4951 min
Histogram: 1 0 0 0 0 0 0 0 0 0
Neighs:          95603 ave       95603 max       95603 min
Histogram: 1 0 0 0 0 0 0 0 0 0

Total # of neighbors = 95603
Ave neighs/atom = 62.322686
Neighbor list builds = 0
Dangerous builds = 0
variable count equal $i
variable count equal 72
print "$(v_strain:%.5f),$(v_stress:%.5f)" append stress-fracture.csv screen no
write_dump all custom fracture.dump id type x y z v_syy modify append yes
next i
jump SELF loop
displace_atoms gtop move 0  ${delta} 0 units box
displace_atoms gtop move 0  0.06 0 units box
Displacing atoms ...
displace_atoms gbot move 0 -${delta} 0 units box
displace_atoms gbot move 0 -0.06 0 units box
Displacing atoms ...
minimize 1.0e-10 1.0e-10 500 5000
Last active /omp style is pair_style eam/fs/omp
Per MPI rank memory allocation (min/avg/max) = 12.44 | 12.44 | 12.44 Mbytes
   Step         PotEng           Ly            Pyy      
      2527  -6093.2266      87.287611     -180831       
      2550  -6093.5887      87.287611     -180623.57    
      2563  -6093.5891      87.287611     -180587.63    
Loop time of 0.0152095 on 8 procs for 36 steps with 1534 atoms

788.4% CPU use with 1 MPI tasks x 8 OpenMP threads

Minimization stats:
  Stopping criterion = energy tolerance
  Energy initial, next-to-last, final = 
     -6093.22660297152  -6093.58905248825  -6093.58905301749
  Force two-norm initial, final = 1.4293646 0.0021854565
  Force max component initial, final = 0.19604946 0.00028594274
  Final line search alpha, max atom move = 1 0.00028594274
  Iterations, force evaluations = 36 72

MPI task timing breakdown:
Section |  min time  |  avg time  |  max time  |%varavg| %total
---------------------------------------------------------------
Pair    | 0.012404   | 0.012404   | 0.012404   |   0.0 | 81.56
Neigh   | 0          | 0          | 0          |   0.0 |  0.00
Comm    | 0.0010643  | 0.0010643  | 0.0010643  |   0.0 |  7.00
Output  | 6.282e-06  | 6.282e-06  | 6.282e-06  |   0.0 |  0.04
Modify  | 0.00078081 | 0.00078081 | 0.00078081 |   0.0 |  5.13
Other   |            | 0.0009537  |            |       |  6.27

Nlocal:           1534 ave        1534 max        1534 min
Histogram: 1 0 0 0 0 0 0 0 0 0
Nghost:           4951 ave        4951 max        4951 min
Histogram: 1 0 0 0 0 0 0 0 0 0
Neighs:          95571 ave       95571 max       95571 min
Histogram: 1 0 0 0 0 0 0 0 0 0

Total # of neighbors = 95571
Ave neighs/atom = 62.301825
Neighbor list builds = 0
Dangerous builds = 0
variable count equal $i
variable count equal 73
print "$(v_strain:%.5f),$(v_stress:%.5f)" append stress-fracture.csv screen no
write_dump all custom fracture.dump id type x y z v_syy modify append yes
next i
jump SELF loop
displace_atoms gtop move 0  ${delta} 0 units box
displace_atoms gtop move 0  0.06 0 units box
Displacing atoms ...
displace_atoms gbot move 0 -${delta} 0 units box
displace_atoms gbot move 0 -0.06 0 units box
Displacing atoms ...
minimize 1.0e-10 1.0e-10 500 5000
Last active /omp style is pair_style eam/fs/omp
Per MPI rank memory allocation (min/avg/max) = 12.44 | 12.44 | 12.44 Mbytes
   Step         PotEng           Ly            Pyy      
      2563  -6089.7259      87.407611     -182798.37    
      2600  -6090.0889      87.407611     -182503.53    
      2650  -6093.0946      87.407611     -174924.66    
      2700  -6094.2554      87.407611     -172497.42    
      2712  -6094.2554      87.407611     -172493.44    
Loop time of 0.0585363 on 8 procs for 149 steps with 1534 atoms

802.9% CPU use with 1 MPI tasks x 8 OpenMP threads

Minimization stats:
  Stopping criterion = energy tolerance
  Energy initial, next-to-last, final = 
      -6089.7259059515  -6094.25541407237  -6094.25541465337
  Force two-norm initial, final = 1.4271916 0.0023399081
  Force max component initial, final = 0.19668559 0.00018843343
  Final line search alpha, max atom move = 1 0.00018843343
  Iterations, force evaluations = 149 268

MPI task timing breakdown:
Section |  min time  |  avg time  |  max time  |%varavg| %total
---------------------------------------------------------------
Pair    | 0.047429   | 0.047429   | 0.047429   |   0.0 | 81.02
Neigh   | 0          | 0          | 0          |   0.0 |  0.00
Comm    | 0.0040841  | 0.0040841  | 0.0040841  |   0.0 |  6.98
Output  | 2.9666e-05 | 2.9666e-05 | 2.9666e-05 |   0.0 |  0.05
Modify  | 0.0029682  | 0.0029682  | 0.0029682  |   0.0 |  5.07
Other   |            | 0.004025   |            |       |  6.88

Nlocal:           1534 ave        1534 max        1534 min
Histogram: 1 0 0 0 0 0 0 0 0 0
Nghost:           4951 ave        4951 max        4951 min
Histogram: 1 0 0 0 0 0 0 0 0 0
Neighs:          95557 ave       95557 max       95557 min
Histogram: 1 0 0 0 0 0 0 0 0 0

Total # of neighbors = 95557
Ave neighs/atom = 62.292699
Neighbor list builds = 0
Dangerous builds = 0
variable count equal $i
variable count equal 74
print "$(v_strain:%.5f),$(v_stress:%.5f)" append stress-fracture.csv screen no
write_dump all custom fracture.dump id type x y z v_syy modify append yes
next i
jump SELF loop
displace_atoms gtop move 0  ${delta} 0 units box
displace_atoms gtop move 0  0.06 0 units box
Displacing atoms ...
displace_atoms gbot move 0 -${delta} 0 units box
displace_atoms gbot move 0 -0.06 0 units box
Displacing atoms ...
minimize 1.0e-10 1.0e-10 500 5000
Last active /omp style is pair_style eam/fs/omp
Per MPI rank memory allocation (min/avg/max) = 12.44 | 12.44 | 12.44 Mbytes
   Step         PotEng           Ly            Pyy      
      2712  -6090.5504      87.527611     -174664.24    
      2750  -6098.8609      87.527611     -158152.32    
      2800  -6169.3223      87.527611     -86255.45     
      2850  -6210.819       87.527611     -5888.3957    
      2900  -6210.9492      87.527611     -71.086238    
      2914  -6210.9492      87.527611     -16.218357    
Loop time of 0.0755028 on 8 procs for 202 steps with 1534 atoms

802.2% CPU use with 1 MPI tasks x 8 OpenMP threads

Minimization stats:
  Stopping criterion = energy tolerance
  Energy initial, next-to-last, final = 
     -6090.55043349199  -6210.94922025396  -6210.94922082997
  Force two-norm initial, final = 1.4348488 0.0029102596
  Force max component initial, final = 0.1936784 0.00022239862
  Final line search alpha, max atom move = 1 0.00022239862
  Iterations, force evaluations = 202 332

MPI task timing breakdown:
Section |  min time  |  avg time  |  max time  |%varavg| %total
---------------------------------------------------------------
Pair    | 0.059669   | 0.059669   | 0.059669   |   0.0 | 79.03
Neigh   | 0.001401   | 0.001401   | 0.001401   |   0.0 |  1.86
Comm    | 0.0052882  | 0.0052882  | 0.0052882  |   0.0 |  7.00
Output  | 6.3402e-05 | 6.3402e-05 | 6.3402e-05 |   0.0 |  0.08
Modify  | 0.0037317  | 0.0037317  | 0.0037317  |   0.0 |  4.94
Other   |            | 0.005349   |            |       |  7.08

Nlocal:           1534 ave        1534 max        1534 min
Histogram: 1 0 0 0 0 0 0 0 0 0
Nghost:           4953 ave        4953 max        4953 min
Histogram: 1 0 0 0 0 0 0 0 0 0
Neighs:          97158 ave       97158 max       97158 min
Histogram: 1 0 0 0 0 0 0 0 0 0

Total # of neighbors = 97158
Ave neighs/atom = 63.336375
Neighbor list builds = 5
Dangerous builds = 0
variable count equal $i
variable count equal 75
print "$(v_strain:%.5f),$(v_stress:%.5f)" append stress-fracture.csv screen no
write_dump all custom fracture.dump id type x y z v_syy modify append yes
next i
jump SELF loop
displace_atoms gtop move 0  ${delta} 0 units box
displace_atoms gtop move 0  0.06 0 units box
Displacing atoms ...
displace_atoms gbot move 0 -${delta} 0 units box
displace_atoms gbot move 0 -0.06 0 units box
Displacing atoms ...
minimize 1.0e-10 1.0e-10 500 5000
Last active /omp style is pair_style eam/fs/omp
Per MPI rank memory allocation (min/avg/max) = 12.44 | 12.44 | 12.44 Mbytes
   Step         PotEng           Ly            Pyy      
      2914  -6210.2141      87.647611     -4347.555     
      2950  -6210.9492      87.647611     -30.895445    
      2960  -6210.9492      87.647611     -3.6705511    
Loop time of 0.0199526 on 8 procs for 46 steps with 1534 atoms

799.6% CPU use with 1 MPI tasks x 8 OpenMP threads

Minimization stats:
  Stopping criterion = energy tolerance
  Energy initial, next-to-last, final = 
     -6210.21408521195  -6210.94922773397  -6210.94922823808
  Force two-norm initial, final = 2.4573654 0.0022681609
  Force max component initial, final = 0.29410329 0.00015949203
  Final line search alpha, max atom move = 1 0.00015949203
  Iterations, force evaluations = 46 92

MPI task timing breakdown:
Section |  min time  |  avg time  |  max time  |%varavg| %total
---------------------------------------------------------------
Pair    | 0.016318   | 0.016318   | 0.016318   |   0.0 | 81.79
Neigh   | 0          | 0          | 0          |   0.0 |  0.00
Comm    | 0.0013601  | 0.0013601  | 0.0013601  |   0.0 |  6.82
Output  | 9.899e-06  | 9.899e-06  | 9.899e-06  |   0.0 |  0.05
Modify  | 0.0010204  | 0.0010204  | 0.0010204  |   0.0 |  5.11
Other   |            | 0.001244   |            |       |  6.23

Nlocal:           1534 ave        1534 max        1534 min
Histogram: 1 0 0 0 0 0 0 0 0 0
Nghost:           4953 ave        4953 max        4953 min
Histogram: 1 0 0 0 0 0 0 0 0 0
Neighs:          97158 ave       97158 max       97158 min
Histogram: 1 0 0 0 0 0 0 0 0 0

Total # of neighbors = 97158
Ave neighs/atom = 63.336375
Neighbor list builds = 0
Dangerous builds = 0
variable count equal $i
variable count equal 76
print "$(v_strain:%.5f),$(v_stress:%.5f)" append stress-fracture.csv screen no
write_dump all custom fracture.dump id type x y z v_syy modify append yes
next i
jump SELF loop
displace_atoms gtop move 0  ${delta} 0 units box
displace_atoms gtop move 0  0.06 0 units box
Displacing atoms ...
displace_atoms gbot move 0 -${delta} 0 units box
displace_atoms gbot move 0 -0.06 0 units box
Displacing atoms ...
minimize 1.0e-10 1.0e-10 500 5000
Last active /omp style is pair_style eam/fs/omp
Per MPI rank memory allocation (min/avg/max) = 12.44 | 12.44 | 12.44 Mbytes
   Step         PotEng           Ly            Pyy      
      2960  -6210.2146      87.767611     -4329.4031    
      3000  -6210.9492      87.767611     -17.513167    
      3006  -6210.9492      87.767611     -6.8222162    
Loop time of 0.0202528 on 8 procs for 46 steps with 1534 atoms

788.8% CPU use with 1 MPI tasks x 8 OpenMP threads

Minimization stats:
  Stopping criterion = energy tolerance
  Energy initial, next-to-last, final = 
     -6210.21455173692  -6210.94922916824  -6210.94922969604
  Force two-norm initial, final = 2.4574353 0.0023286086
  Force max component initial, final = 0.29404413 0.00018097071
  Final line search alpha, max atom move = 1 0.00018097071
  Iterations, force evaluations = 46 92

MPI task timing breakdown:
Section |  min time  |  avg time  |  max time  |%varavg| %total
---------------------------------------------------------------
Pair    | 0.016529   | 0.016529   | 0.016529   |   0.0 | 81.61
Neigh   | 0          | 0          | 0          |   0.0 |  0.00
Comm    | 0.0014269  | 0.0014269  | 0.0014269  |   0.0 |  7.05
Output  | 1.2314e-05 | 1.2314e-05 | 1.2314e-05 |   0.0 |  0.06
Modify  | 0.0010172  | 0.0010172  | 0.0010172  |   0.0 |  5.02
Other   |            | 0.001267   |            |       |  6.26

Nlocal:           1534 ave        1534 max        1534 min
Histogram: 1 0 0 0 0 0 0 0 0 0
Nghost:           4953 ave        4953 max        4953 min
Histogram: 1 0 0 0 0 0 0 0 0 0
Neighs:          97158 ave       97158 max       97158 min
Histogram: 1 0 0 0 0 0 0 0 0 0

Total # of neighbors = 97158
Ave neighs/atom = 63.336375
Neighbor list builds = 0
Dangerous builds = 0
variable count equal $i
variable count equal 77
print "$(v_strain:%.5f),$(v_stress:%.5f)" append stress-fracture.csv screen no
write_dump all custom fracture.dump id type x y z v_syy modify append yes
next i
jump SELF loop
displace_atoms gtop move 0  ${delta} 0 units box
displace_atoms gtop move 0  0.06 0 units box
Displacing atoms ...
displace_atoms gbot move 0 -${delta} 0 units box
displace_atoms gbot move 0 -0.06 0 units box
Displacing atoms ...
minimize 1.0e-10 1.0e-10 500 5000
Last active /omp style is pair_style eam/fs/omp
Per MPI rank memory allocation (min/avg/max) = 12.44 | 12.44 | 12.44 Mbytes
   Step         PotEng           Ly            Pyy      
      3006  -6210.2145      87.887611     -4326.6217    
      3050  -6210.9492      87.887611     -11.186014    
      3052  -6210.9492      87.887611     -7.2371579    
Loop time of 0.0186613 on 8 procs for 46 steps with 1534 atoms

810.5% CPU use with 1 MPI tasks x 8 OpenMP threads

Minimization stats:
  Stopping criterion = energy tolerance
  Energy initial, next-to-last, final = 
     -6210.21452003887  -6210.94922970385  -6210.94923021903
  Force two-norm initial, final = 2.4574379 0.002275216
  Force max component initial, final = 0.29403835 0.00016983288
  Final line search alpha, max atom move = 1 0.00016983288
  Iterations, force evaluations = 46 92

MPI task timing breakdown:
Section |  min time  |  avg time  |  max time  |%varavg| %total
---------------------------------------------------------------
Pair    | 0.015079   | 0.015079   | 0.015079   |   0.0 | 80.80
Neigh   | 0          | 0          | 0          |   0.0 |  0.00
Comm    | 0.0013474  | 0.0013474  | 0.0013474  |   0.0 |  7.22
Output  | 6.472e-06  | 6.472e-06  | 6.472e-06  |   0.0 |  0.03
Modify  | 0.0010122  | 0.0010122  | 0.0010122  |   0.0 |  5.42
Other   |            | 0.001216   |            |       |  6.52

Nlocal:           1534 ave        1534 max        1534 min
Histogram: 1 0 0 0 0 0 0 0 0 0
Nghost:           4953 ave        4953 max        4953 min
Histogram: 1 0 0 0 0 0 0 0 0 0
Neighs:          97158 ave       97158 max       97158 min
Histogram: 1 0 0 0 0 0 0 0 0 0

Total # of neighbors = 97158
Ave neighs/atom = 63.336375
Neighbor list builds = 0
Dangerous builds = 0
variable count equal $i
variable count equal 78
print "$(v_strain:%.5f),$(v_stress:%.5f)" append stress-fracture.csv screen no
write_dump all custom fracture.dump id type x y z v_syy modify append yes
next i
jump SELF loop
displace_atoms gtop move 0  ${delta} 0 units box
displace_atoms gtop move 0  0.06 0 units box
Displacing atoms ...
displace_atoms gbot move 0 -${delta} 0 units box
displace_atoms gbot move 0 -0.06 0 units box
Displacing atoms ...
minimize 1.0e-10 1.0e-10 500 5000
Last active /omp style is pair_style eam/fs/omp
Per MPI rank memory allocation (min/avg/max) = 12.44 | 12.44 | 12.44 Mbytes
   Step         PotEng           Ly            Pyy      
      3052  -6210.2145      88.007611     -4321.1343    
      3098  -6210.9492      88.007611     -7.1929568    
Loop time of 0.0209928 on 8 procs for 46 steps with 1534 atoms

797.6% CPU use with 1 MPI tasks x 8 OpenMP threads

Minimization stats:
  Stopping criterion = energy tolerance
  Energy initial, next-to-last, final = 
     -6210.21450335493  -6210.94922989441  -6210.94923039309
  Force two-norm initial, final = 2.4574179 0.0022704359
  Force max component initial, final = 0.29404257 0.00018097356
  Final line search alpha, max atom move = 1 0.00018097356
  Iterations, force evaluations = 46 92

MPI task timing breakdown:
Section |  min time  |  avg time  |  max time  |%varavg| %total
---------------------------------------------------------------
Pair    | 0.017057   | 0.017057   | 0.017057   |   0.0 | 81.25
Neigh   | 0          | 0          | 0          |   0.0 |  0.00
Comm    | 0.0014874  | 0.0014874  | 0.0014874  |   0.0 |  7.09
Output  | 0          | 0          | 0          |   0.0 |  0.00
Modify  | 0.0010593  | 0.0010593  | 0.0010593  |   0.0 |  5.05
Other   |            | 0.001389   |            |       |  6.62

Nlocal:           1534 ave        1534 max        1534 min
Histogram: 1 0 0 0 0 0 0 0 0 0
Nghost:           4953 ave        4953 max        4953 min
Histogram: 1 0 0 0 0 0 0 0 0 0
Neighs:          97158 ave       97158 max       97158 min
Histogram: 1 0 0 0 0 0 0 0 0 0

Total # of neighbors = 97158
Ave neighs/atom = 63.336375
Neighbor list builds = 0
Dangerous builds = 0
variable count equal $i
variable count equal 79
print "$(v_strain:%.5f),$(v_stress:%.5f)" append stress-fracture.csv screen no
write_dump all custom fracture.dump id type x y z v_syy modify append yes
next i
jump SELF loop
displace_atoms gtop move 0  ${delta} 0 units box
displace_atoms gtop move 0  0.06 0 units box
Displacing atoms ...
displace_atoms gbot move 0 -${delta} 0 units box
displace_atoms gbot move 0 -0.06 0 units box
Displacing atoms ...
minimize 1.0e-10 1.0e-10 500 5000
Last active /omp style is pair_style eam/fs/omp
Per MPI rank memory allocation (min/avg/max) = 12.44 | 12.44 | 12.44 Mbytes
   Step         PotEng           Ly            Pyy      
      3098  -6210.2145      88.127611     -4315.2149    
      3100  -6210.7029      88.127611     -4530.8651    
      3144  -6210.9492      88.127611     -7.3249198    
Loop time of 0.020724 on 8 procs for 46 steps with 1534 atoms

806.9% CPU use with 1 MPI tasks x 8 OpenMP threads

Minimization stats:
  Stopping criterion = energy tolerance
  Energy initial, next-to-last, final = 
     -6210.21450144565  -6210.94922992719   -6210.9492304312
  Force two-norm initial, final = 2.4574203 0.0022641658
  Force max component initial, final = 0.29403811 0.00016790367
  Final line search alpha, max atom move = 1 0.00016790367
  Iterations, force evaluations = 46 92

MPI task timing breakdown:
Section |  min time  |  avg time  |  max time  |%varavg| %total
---------------------------------------------------------------
Pair    | 0.017014   | 0.017014   | 0.017014   |   0.0 | 82.10
Neigh   | 0          | 0          | 0          |   0.0 |  0.00
Comm    | 0.0014102  | 0.0014102  | 0.0014102  |   0.0 |  6.80
Output  | 6.763e-06  | 6.763e-06  | 6.763e-06  |   0.0 |  0.03
Modify  | 0.0010193  | 0.0010193  | 0.0010193  |   0.0 |  4.92
Other   |            | 0.001274   |            |       |  6.15

Nlocal:           1534 ave        1534 max        1534 min
Histogram: 1 0 0 0 0 0 0 0 0 0
Nghost:           4953 ave        4953 max        4953 min
Histogram: 1 0 0 0 0 0 0 0 0 0
Neighs:          97158 ave       97158 max       97158 min
Histogram: 1 0 0 0 0 0 0 0 0 0

Total # of neighbors = 97158
Ave neighs/atom = 63.336375
Neighbor list builds = 0
Dangerous builds = 0
variable count equal $i
variable count equal 80
print "$(v_strain:%.5f),$(v_stress:%.5f)" append stress-fracture.csv screen no
write_dump all custom fracture.dump id type x y z v_syy modify append yes
next i
jump SELF loop

print "Fracture run complete: ${nsteps} increments, max strain $(v_strain:%.4f)."
Fracture run complete: 80 increments, max strain 0.1443.
Total wall time: 0:00:01
